# vtk DataFile Version 1.0
unstructured Grid
ASCII
DATASET UNSTRUCTURED_GRID
POINTS 23440 float 
0 0	 0.0
0.0222222 0	 0.0
0.0222222 0.0222222	 0.0
0 0.0222222	 0.0
0.0222222 0	 0.0
0.0444444 0	 0.0
0.0444444 0.0222222	 0.0
0.0222222 0.0222222	 0.0
0.0444444 0	 0.0
0.0666667 0	 0.0
0.0666667 0.0222222	 0.0
0.0444444 0.0222222	 0.0
0.0666667 0	 0.0
0.0888889 0	 0.0
0.0888889 0.0222222	 0.0
0.0666667 0.0222222	 0.0
0.0888889 0	 0.0
0.111111 0	 0.0
0.111111 0.0222222	 0.0
0.0888889 0.0222222	 0.0
0.111111 0	 0.0
0.133333 0	 0.0
0.133333 0.0222222	 0.0
0.111111 0.0222222	 0.0
0.133333 0	 0.0
0.155556 0	 0.0
0.155556 0.0222222	 0.0
0.133333 0.0222222	 0.0
0.155556 0	 0.0
0.177778 0	 0.0
0.177778 0.0222222	 0.0
0.155556 0.0222222	 0.0
0.177778 0	 0.0
0.2 0	 0.0
0.2 0.0222222	 0.0
0.177778 0.0222222	 0.0
0.2 0	 0.0
0.222222 0	 0.0
0.222222 0.0222222	 0.0
0.2 0.0222222	 0.0
0.222222 0	 0.0
0.244444 0	 0.0
0.244444 0.0222222	 0.0
0.222222 0.0222222	 0.0
0.244444 0	 0.0
0.266667 0	 0.0
0.266667 0.0222222	 0.0
0.244444 0.0222222	 0.0
0.266667 0	 0.0
0.288889 0	 0.0
0.288889 0.0222222	 0.0
0.266667 0.0222222	 0.0
0.288889 0	 0.0
0.311111 0	 0.0
0.311111 0.0222222	 0.0
0.288889 0.0222222	 0.0
0.311111 0	 0.0
0.333333 0	 0.0
0.333333 0.0222222	 0.0
0.311111 0.0222222	 0.0
0.333333 0	 0.0
0.355556 0	 0.0
0.355556 0.0222222	 0.0
0.333333 0.0222222	 0.0
0.355556 0	 0.0
0.377778 0	 0.0
0.377778 0.0222222	 0.0
0.355556 0.0222222	 0.0
0.377778 0	 0.0
0.4 0	 0.0
0.4 0.0222222	 0.0
0.377778 0.0222222	 0.0
0.4 0	 0.0
0.422222 0	 0.0
0.422222 0.0222222	 0.0
0.4 0.0222222	 0.0
0.422222 0	 0.0
0.444444 0	 0.0
0.444444 0.0222222	 0.0
0.422222 0.0222222	 0.0
0.444444 0	 0.0
0.466667 0	 0.0
0.466667 0.0222222	 0.0
0.444444 0.0222222	 0.0
0.466667 0	 0.0
0.488889 0	 0.0
0.488889 0.0222222	 0.0
0.466667 0.0222222	 0.0
0.488889 0	 0.0
0.511111 0	 0.0
0.511111 0.0222222	 0.0
0.488889 0.0222222	 0.0
0.511111 0	 0.0
0.533333 0	 0.0
0.533333 0.0222222	 0.0
0.511111 0.0222222	 0.0
0.533333 0	 0.0
0.555556 0	 0.0
0.555556 0.0222222	 0.0
0.533333 0.0222222	 0.0
0.555556 0	 0.0
0.577778 0	 0.0
0.577778 0.0222222	 0.0
0.555556 0.0222222	 0.0
0.577778 0	 0.0
0.6 0	 0.0
0.6 0.0222222	 0.0
0.577778 0.0222222	 0.0
0.6 0	 0.0
0.622222 0	 0.0
0.622222 0.0222222	 0.0
0.6 0.0222222	 0.0
0.622222 0	 0.0
0.644444 0	 0.0
0.644444 0.0222222	 0.0
0.622222 0.0222222	 0.0
0.644444 0	 0.0
0.666667 0	 0.0
0.666667 0.0222222	 0.0
0.644444 0.0222222	 0.0
0.666667 0	 0.0
0.688889 0	 0.0
0.688889 0.0222222	 0.0
0.666667 0.0222222	 0.0
0.688889 0	 0.0
0.711111 0	 0.0
0.711111 0.0222222	 0.0
0.688889 0.0222222	 0.0
0.711111 0	 0.0
0.733333 0	 0.0
0.733333 0.0222222	 0.0
0.711111 0.0222222	 0.0
0.733333 0	 0.0
0.755556 0	 0.0
0.755556 0.0222222	 0.0
0.733333 0.0222222	 0.0
0.755556 0	 0.0
0.777778 0	 0.0
0.777778 0.0222222	 0.0
0.755556 0.0222222	 0.0
0.777778 0	 0.0
0.8 0	 0.0
0.8 0.0222222	 0.0
0.777778 0.0222222	 0.0
0.8 0	 0.0
0.822222 0	 0.0
0.822222 0.0222222	 0.0
0.8 0.0222222	 0.0
0.822222 0	 0.0
0.844444 0	 0.0
0.844444 0.0222222	 0.0
0.822222 0.0222222	 0.0
0.844444 0	 0.0
0.866667 0	 0.0
0.866667 0.0222222	 0.0
0.844444 0.0222222	 0.0
0.866667 0	 0.0
0.888889 0	 0.0
0.888889 0.0222222	 0.0
0.866667 0.0222222	 0.0
0.888889 0	 0.0
0.911111 0	 0.0
0.911111 0.0222222	 0.0
0.888889 0.0222222	 0.0
0.911111 0	 0.0
0.933333 0	 0.0
0.933333 0.0222222	 0.0
0.911111 0.0222222	 0.0
0.933333 0	 0.0
0.955556 0	 0.0
0.955556 0.0222222	 0.0
0.933333 0.0222222	 0.0
0.955556 0	 0.0
0.977778 0	 0.0
0.977778 0.0222222	 0.0
0.955556 0.0222222	 0.0
0.977778 0	 0.0
1 0	 0.0
1 0.0222222	 0.0
0.977778 0.0222222	 0.0
1 0	 0.0
1.02222 0	 0.0
1.02222 0.0222222	 0.0
1 0.0222222	 0.0
1.02222 0	 0.0
1.04444 0	 0.0
1.04444 0.0222222	 0.0
1.02222 0.0222222	 0.0
1.04444 0	 0.0
1.06667 0	 0.0
1.06667 0.0222222	 0.0
1.04444 0.0222222	 0.0
1.06667 0	 0.0
1.08889 0	 0.0
1.08889 0.0222222	 0.0
1.06667 0.0222222	 0.0
1.08889 0	 0.0
1.11111 0	 0.0
1.11111 0.0222222	 0.0
1.08889 0.0222222	 0.0
1.11111 0	 0.0
1.13333 0	 0.0
1.13333 0.0222222	 0.0
1.11111 0.0222222	 0.0
1.13333 0	 0.0
1.15556 0	 0.0
1.15556 0.0222222	 0.0
1.13333 0.0222222	 0.0
1.15556 0	 0.0
1.17778 0	 0.0
1.17778 0.0222222	 0.0
1.15556 0.0222222	 0.0
1.17778 0	 0.0
1.2 0	 0.0
1.2 0.0222222	 0.0
1.17778 0.0222222	 0.0
1.2 0	 0.0
1.22222 0	 0.0
1.22222 0.0222222	 0.0
1.2 0.0222222	 0.0
1.22222 0	 0.0
1.24444 0	 0.0
1.24444 0.0222222	 0.0
1.22222 0.0222222	 0.0
1.24444 0	 0.0
1.26667 0	 0.0
1.26667 0.0222222	 0.0
1.24444 0.0222222	 0.0
1.26667 0	 0.0
1.28889 0	 0.0
1.28889 0.0222222	 0.0
1.26667 0.0222222	 0.0
1.28889 0	 0.0
1.31111 0	 0.0
1.31111 0.0222222	 0.0
1.28889 0.0222222	 0.0
1.31111 0	 0.0
1.33333 0	 0.0
1.33333 0.0222222	 0.0
1.31111 0.0222222	 0.0
1.33333 0	 0.0
1.35556 0	 0.0
1.35556 0.0222222	 0.0
1.33333 0.0222222	 0.0
1.35556 0	 0.0
1.37778 0	 0.0
1.37778 0.0222222	 0.0
1.35556 0.0222222	 0.0
1.37778 0	 0.0
1.4 0	 0.0
1.4 0.0222222	 0.0
1.37778 0.0222222	 0.0
1.4 0	 0.0
1.42222 0	 0.0
1.42222 0.0222222	 0.0
1.4 0.0222222	 0.0
1.42222 0	 0.0
1.44444 0	 0.0
1.44444 0.0222222	 0.0
1.42222 0.0222222	 0.0
1.44444 0	 0.0
1.46667 0	 0.0
1.46667 0.0222222	 0.0
1.44444 0.0222222	 0.0
1.46667 0	 0.0
1.48889 0	 0.0
1.48889 0.0222222	 0.0
1.46667 0.0222222	 0.0
1.48889 0	 0.0
1.51111 0	 0.0
1.51111 0.0222222	 0.0
1.48889 0.0222222	 0.0
1.51111 0	 0.0
1.53333 0	 0.0
1.53333 0.0222222	 0.0
1.51111 0.0222222	 0.0
1.53333 0	 0.0
1.55556 0	 0.0
1.55556 0.0222222	 0.0
1.53333 0.0222222	 0.0
1.55556 0	 0.0
1.57778 0	 0.0
1.57778 0.0222222	 0.0
1.55556 0.0222222	 0.0
1.57778 0	 0.0
1.6 0	 0.0
1.6 0.0222222	 0.0
1.57778 0.0222222	 0.0
1.6 0	 0.0
1.62222 0	 0.0
1.62222 0.0222222	 0.0
1.6 0.0222222	 0.0
1.62222 0	 0.0
1.64444 0	 0.0
1.64444 0.0222222	 0.0
1.62222 0.0222222	 0.0
1.64444 0	 0.0
1.66667 0	 0.0
1.66667 0.0222222	 0.0
1.64444 0.0222222	 0.0
1.66667 0	 0.0
1.68889 0	 0.0
1.68889 0.0222222	 0.0
1.66667 0.0222222	 0.0
1.68889 0	 0.0
1.71111 0	 0.0
1.71111 0.0222222	 0.0
1.68889 0.0222222	 0.0
1.71111 0	 0.0
1.73333 0	 0.0
1.73333 0.0222222	 0.0
1.71111 0.0222222	 0.0
1.73333 0	 0.0
1.75556 0	 0.0
1.75556 0.0222222	 0.0
1.73333 0.0222222	 0.0
1.75556 0	 0.0
1.77778 0	 0.0
1.77778 0.0222222	 0.0
1.75556 0.0222222	 0.0
1.77778 0	 0.0
1.8 0	 0.0
1.8 0.0222222	 0.0
1.77778 0.0222222	 0.0
1.8 0	 0.0
1.82222 0	 0.0
1.82222 0.0222222	 0.0
1.8 0.0222222	 0.0
1.82222 0	 0.0
1.84444 0	 0.0
1.84444 0.0222222	 0.0
1.82222 0.0222222	 0.0
1.84444 0	 0.0
1.86667 0	 0.0
1.86667 0.0222222	 0.0
1.84444 0.0222222	 0.0
1.86667 0	 0.0
1.88889 0	 0.0
1.88889 0.0222222	 0.0
1.86667 0.0222222	 0.0
1.88889 0	 0.0
1.91111 0	 0.0
1.91111 0.0222222	 0.0
1.88889 0.0222222	 0.0
1.91111 0	 0.0
1.93333 0	 0.0
1.93333 0.0222222	 0.0
1.91111 0.0222222	 0.0
1.93333 0	 0.0
1.95556 0	 0.0
1.95556 0.0222222	 0.0
1.93333 0.0222222	 0.0
1.95556 0	 0.0
1.97778 0	 0.0
1.97778 0.0222222	 0.0
1.95556 0.0222222	 0.0
1.97778 0	 0.0
2 0	 0.0
2 0.0222222	 0.0
1.97778 0.0222222	 0.0
2 0	 0.0
2.02222 0	 0.0
2.02222 0.0222222	 0.0
2 0.0222222	 0.0
2.02222 0	 0.0
2.04444 0	 0.0
2.04444 0.0222222	 0.0
2.02222 0.0222222	 0.0
2.04444 0	 0.0
2.06667 0	 0.0
2.06667 0.0222222	 0.0
2.04444 0.0222222	 0.0
2.06667 0	 0.0
2.08889 0	 0.0
2.08889 0.0222222	 0.0
2.06667 0.0222222	 0.0
2.08889 0	 0.0
2.11111 0	 0.0
2.11111 0.0222222	 0.0
2.08889 0.0222222	 0.0
2.11111 0	 0.0
2.13333 0	 0.0
2.13333 0.0222222	 0.0
2.11111 0.0222222	 0.0
2.13333 0	 0.0
2.15556 0	 0.0
2.15556 0.0222222	 0.0
2.13333 0.0222222	 0.0
2.15556 0	 0.0
2.17778 0	 0.0
2.17778 0.0222222	 0.0
2.15556 0.0222222	 0.0
2.17778 0	 0.0
2.2 0	 0.0
2.2 0.0222222	 0.0
2.17778 0.0222222	 0.0
2.2 0	 0.0
2.22222 0	 0.0
2.22222 0.0222222	 0.0
2.2 0.0222222	 0.0
2.22222 0	 0.0
2.24444 0	 0.0
2.24444 0.0222222	 0.0
2.22222 0.0222222	 0.0
2.24444 0	 0.0
2.26667 0	 0.0
2.26667 0.0222222	 0.0
2.24444 0.0222222	 0.0
2.26667 0	 0.0
2.28889 0	 0.0
2.28889 0.0222222	 0.0
2.26667 0.0222222	 0.0
2.28889 0	 0.0
2.31111 0	 0.0
2.31111 0.0222222	 0.0
2.28889 0.0222222	 0.0
2.31111 0	 0.0
2.33333 0	 0.0
2.33333 0.0222222	 0.0
2.31111 0.0222222	 0.0
2.33333 0	 0.0
2.35556 0	 0.0
2.35556 0.0222222	 0.0
2.33333 0.0222222	 0.0
2.35556 0	 0.0
2.37778 0	 0.0
2.37778 0.0222222	 0.0
2.35556 0.0222222	 0.0
2.37778 0	 0.0
2.4 0	 0.0
2.4 0.0222222	 0.0
2.37778 0.0222222	 0.0
2.4 0	 0.0
2.42222 0	 0.0
2.42222 0.0222222	 0.0
2.4 0.0222222	 0.0
2.42222 0	 0.0
2.44444 0	 0.0
2.44444 0.0222222	 0.0
2.42222 0.0222222	 0.0
2.44444 0	 0.0
2.46667 0	 0.0
2.46667 0.0222222	 0.0
2.44444 0.0222222	 0.0
2.46667 0	 0.0
2.48889 0	 0.0
2.48889 0.0222222	 0.0
2.46667 0.0222222	 0.0
2.48889 0	 0.0
2.51111 0	 0.0
2.51111 0.0222222	 0.0
2.48889 0.0222222	 0.0
2.51111 0	 0.0
2.53333 0	 0.0
2.53333 0.0222222	 0.0
2.51111 0.0222222	 0.0
2.53333 0	 0.0
2.55556 0	 0.0
2.55556 0.0222222	 0.0
2.53333 0.0222222	 0.0
2.55556 0	 0.0
2.57778 0	 0.0
2.57778 0.0222222	 0.0
2.55556 0.0222222	 0.0
2.57778 0	 0.0
2.6 0	 0.0
2.6 0.0222222	 0.0
2.57778 0.0222222	 0.0
2.6 0	 0.0
2.62222 0	 0.0
2.62222 0.0222222	 0.0
2.6 0.0222222	 0.0
2.62222 0	 0.0
2.64444 0	 0.0
2.64444 0.0222222	 0.0
2.62222 0.0222222	 0.0
2.64444 0	 0.0
2.66667 0	 0.0
2.66667 0.0222222	 0.0
2.64444 0.0222222	 0.0
2.66667 0	 0.0
2.68889 0	 0.0
2.68889 0.0222222	 0.0
2.66667 0.0222222	 0.0
2.68889 0	 0.0
2.71111 0	 0.0
2.71111 0.0222222	 0.0
2.68889 0.0222222	 0.0
2.71111 0	 0.0
2.73333 0	 0.0
2.73333 0.0222222	 0.0
2.71111 0.0222222	 0.0
2.73333 0	 0.0
2.75556 0	 0.0
2.75556 0.0222222	 0.0
2.73333 0.0222222	 0.0
2.75556 0	 0.0
2.77778 0	 0.0
2.77778 0.0222222	 0.0
2.75556 0.0222222	 0.0
2.77778 0	 0.0
2.8 0	 0.0
2.8 0.0222222	 0.0
2.77778 0.0222222	 0.0
2.8 0	 0.0
2.82222 0	 0.0
2.82222 0.0222222	 0.0
2.8 0.0222222	 0.0
2.82222 0	 0.0
2.84444 0	 0.0
2.84444 0.0222222	 0.0
2.82222 0.0222222	 0.0
2.84444 0	 0.0
2.86667 0	 0.0
2.86667 0.0222222	 0.0
2.84444 0.0222222	 0.0
2.86667 0	 0.0
2.88889 0	 0.0
2.88889 0.0222222	 0.0
2.86667 0.0222222	 0.0
2.88889 0	 0.0
2.91111 0	 0.0
2.91111 0.0222222	 0.0
2.88889 0.0222222	 0.0
2.91111 0	 0.0
[...]
POINT_DATA 23440
SCALARS levelset_first float
LOOKUP_TABLE default
-0.902132
-0.868716
-0.842543
-0.875959
-0.868716
-0.836287
-0.810115
-0.842543
-0.836287
-0.804847
-0.778674
-0.810115
-0.804847
-0.774393
-0.74822
-0.778674
-0.774393
-0.744928
-0.718755
-0.74822
-0.744928
-0.71645
-0.690277
-0.718755
-0.71645
-0.688959
-0.662787
-0.690277
-0.688959
-0.662457
-0.636284
-0.662787
-0.662457
-0.636942
-0.610769
-0.636284
-0.636942
-0.612415
-0.586242
-0.610769
-0.612415
-0.588875
-0.562702
-0.586242
-0.588875
-0.566323
-0.54015
-0.562702
-0.566323
-0.544758
-0.518586
-0.54015
-0.544758
-0.524182
-0.498009
-0.518586
-0.524182
-0.504593
-0.47842
-0.498009
-0.504593
-0.485991
-0.459819
-0.47842
-0.485991
-0.468378
-0.442205
-0.459819
-0.468378
-0.451752
-0.425579
-0.442205
-0.451752
-0.436113
-0.40994
-0.425579
-0.436113
-0.421462
-0.395289
-0.40994
-0.421462
-0.407799
-0.381626
-0.395289
-0.407799
-0.395124
-0.368951
-0.381626
-0.395124
-0.383436
-0.357263
-0.368951
-0.383436
-0.372736
-0.346563
-0.357263
-0.372736
-0.363023
-0.33685
-0.346563
-0.363023
-0.354298
-0.328126
-0.33685
-0.354298
-0.346561
-0.320388
-0.328126
-0.346561
-0.339812
-0.313639
-0.320388
-0.339812
-0.33405
-0.307877
-0.313639
-0.33405
-0.329275
-0.303103
-0.307877
-0.329275
-0.325489
-0.299316
-0.303103
-0.325489
-0.32269
-0.296517
-0.299316
-0.32269
-0.320879
-0.294706
-0.296517
-0.320879
-0.320055
-0.293882
-0.294706
-0.320055
-0.320219
-0.294046
-0.293882
-0.320219
-0.321371
-0.295198
-0.294046
-0.321371
-0.32351
-0.297337
-0.295198
-0.32351
-0.326637
-0.300464
-0.297337
-0.326637
-0.330752
-0.304579
-0.300464
-0.330752
-0.335854
-0.309681
-0.304579
-0.335854
-0.341944
-0.315771
-0.309681
-0.341944
-0.349022
-0.322849
-0.315771
-0.349022
-0.357087
-0.330914
-0.322849
-0.357087
-0.36614
-0.339967
-0.330914
-0.36614
-0.37618
-0.350008
-0.339967
-0.37618
-0.387209
-0.361036
-0.350008
-0.387209
-0.399225
-0.373052
-0.361036
-0.399225
-0.412228
-0.386055
-0.373052
-0.412228
-0.426219
-0.400046
-0.386055
-0.426219
-0.441198
-0.415025
-0.400046
-0.441198
-0.457165
-0.430992
-0.415025
-0.457165
-0.474119
-0.447946
-0.430992
-0.474119
-0.492061
-0.465888
-0.447946
-0.492061
-0.51099
-0.484817
-0.465888
-0.51099
-0.530907
-0.504734
-0.484817
-0.530907
-0.551812
-0.525639
-0.504734
-0.551812
-0.573704
-0.547532
-0.525639
-0.573704
-0.596584
-0.570412
-0.547532
-0.596584
-0.620452
-0.594279
-0.570412
-0.620452
-0.645308
-0.619135
-0.594279
-0.645308
-0.671151
-0.644978
-0.619135
-0.671151
-0.697981
-0.671809
-0.644978
-0.697981
-0.7258
-0.699627
-0.671809
-0.7258
-0.754606
-0.728433
-0.699627
-0.754606
-0.784399
-0.758227
-0.728433
-0.784399
-0.815181
-0.789008
-0.758227
-0.815181
-0.84695
-0.820777
-0.789008
-0.84695
-0.879706
-0.853533
-0.820777
-0.879706
-0.913451
-0.887278
-0.853533
-0.913451
-0.948183
-0.92201
-0.887278
-0.948183
-0.983902
-0.957729
-0.92201
-0.983902
-1.02061
-0.994436
-0.957729
-1.02061
-1.0583
-1.03213
-0.994436
-1.0583
-1.09699
-1.07081
-1.03213
-1.09699
-1.13666
-1.11048
-1.07081
-1.13666
-1.17731
-1.15114
-1.11048
-1.17731
-1.21896
-1.19279
-1.15114
-1.21896
-1.26159
-1.23542
-1.19279
-1.26159
-1.30521
-1.27904
-1.23542
-1.30521
-1.34982
-1.32365
-1.27904
-1.34982
-1.39542
-1.36925
-1.32365
-1.39542
-1.442
-1.41583
-1.36925
-1.442
-1.48957
-1.4634
-1.41583
-1.48957
-1.53813
-1.51196
-1.4634
-1.53813
-1.58768
-1.56151
-1.51196
-1.58768
-1.63821
-1.61204
-1.56151
-1.63821
-1.68974
-1.66356
-1.61204
-1.68974
-1.74225
-1.71607
-1.66356
-1.74225
-1.79574
-1.76957
-1.71607
-1.79574
-1.85023
-1.82406
-1.76957
-1.85023
-1.9057
-1.87953
-1.82406
-1.9057
-1.96216
-1.93599
-1.87953
-1.96216
-2.01961
-1.99344
-1.93599
-2.01961
-2.07805
-2.05187
-1.99344
-2.07805
-2.13747
-2.1113
-2.05187
-2.13747
-2.19788
-2.17171
-2.1113
-2.19788
-2.25928
-2.23311
-2.17171
-2.25928
-2.32166
-2.29549
-2.23311
-2.32166
-2.38504
-2.35887
-2.29549
-2.38504
-2.4494
-2.42323
-2.35887
-2.4494
-2.51475
-2.48858
-2.42323
-2.51475
-2.58109
-2.55491
-2.48858
-2.58109
-2.64841
-2.62224
-2.55491
-2.64841
-2.71672
-2.69055
-2.62224
-2.71672
-2.78602
-2.75985
-2.69055
-2.78602
-2.85631
-2.83014
-2.75985
-2.85631
-2.92759
-2.90141
-2.83014
-2.92759
-2.99985
-2.97368
-2.90141
-2.99985
-3.0731
-3.04693
-2.97368
-3.0731
-3.14734
-3.12116
-3.04693
-3.14734
-3.22256
-3.19639
-3.12116
-3.22256
-3.29878
-3.2726
-3.19639
-3.29878
-3.37598
-3.3498
-3.2726
-3.37598
-3.45417
-3.42799
-3.3498
-3.45417
-3.53334
-3.50717
-3.42799
-3.53334
-3.61351
-3.58733
-3.50717
-3.61351
-3.69466
-3.66848
-3.58733
-3.69466
-3.7768
-3.75062
-3.66848
-3.7768
-3.85992
-3.83375
-3.75062
-3.85992
-3.94404
-3.91787
-3.83375
-3.94404
-4.02914
-4.00297
-3.91787
-4.02914
-4.11523
-4.08906
-4.00297
-4.11523
-4.20231
-4.17614
-4.08906
-4.20231
-4.29037
-4.2642
-4.17614
-4.29037
-4.37943
-4.35325
-4.2642
-4.37943
-4.46947
-4.44329
-4.35325
-4.46947
-4.5605
-4.53432
-4.44329
-4.5605
-4.65251
-4.62634
-4.53432
-4.65251
-4.74551
-4.71934
-4.62634
-4.74551
-4.83951
-4.81333
-4.71934
-4.83951
-4.93448
-4.90831
-4.81333
-4.93448
-5.03045
-5.00428
-4.90831
-5.03045
-5.12741
-5.10123
-5.00428
-5.12741
-5.22535
-5.19917
-5.10123
-5.22535
-5.32428
-5.2981
-5.19917
-0.875959
-0.842543
-0.817358
-0.850774
-0.842543
-0.810115
-0.784929
-0.817358
-0.810115
-0.778674
-0.753489
-0.784929
-0.778674
-0.74822
-0.723035
-0.753489
-0.74822
-0.718755
-0.69357
-0.723035
-0.718755
-0.690277
-0.665092
-0.69357
-0.690277
-0.662787
-0.637601
-0.665092
-0.662787
-0.636284
-0.611099
-0.637601
-0.636284
-0.610769
-0.585584
-0.611099
-0.610769
-0.586242
-0.561057
-0.585584
-0.586242
-0.562702
-0.537517
-0.561057
-0.562702
-0.54015
-0.514965
-0.537517
-0.54015
-0.518586
-0.4934
-0.514965
-0.518586
-0.498009
-0.472824
-0.4934
-0.498009
-0.47842
-0.453235
-0.472824
-0.47842
-0.459819
-0.434633
-0.453235
-0.459819
-0.442205
-0.41702
-0.434633
-0.442205
-0.425579
-0.400393
-0.41702
-0.425579
-0.40994
-0.384755
-0.400393
-0.40994
-0.395289
-0.370104
-0.384755
-0.395289
-0.381626
-0.356441
-0.370104
-0.381626
-0.368951
-0.343766
-0.356441
-0.368951
-0.357263
-0.332078
-0.343766
-0.357263
-0.346563
-0.321378
-0.332078
-0.346563
-0.33685
-0.311665
-0.321378
-0.33685
-0.328126
-0.30294
-0.311665
-0.328126
-0.320388
-0.295203
-0.30294
-0.320388
-0.313639
-0.288454
-0.295203
-0.313639
-0.307877
-0.282692
-0.288454
-0.307877
-0.303103
-0.277917
-0.282692
-0.303103
-0.299316
-0.274131
-0.277917
-0.299316
-0.296517
-0.271332
-0.274131
-0.296517
-0.294706
-0.269521
-0.271332
-0.294706
-0.293882
-0.268697
-0.269521
-0.293882
-0.294046
-0.268861
-0.268697
-0.294046
-0.295198
-0.270013
-0.268861
-0.295198
-0.297337
-0.272152
-0.270013
-0.297337
-0.300464
-0.275279
-0.272152
-0.300464
-0.304579
-0.279394
-0.275279
-0.304579
-0.309681
-0.284496
-0.279394
-0.309681
-0.315771
-0.290586
-0.284496
-0.315771
-0.322849
-0.297664
-0.290586
-0.322849
-0.330914
-0.305729
-0.297664
-0.330914
-0.339967
-0.314782
-0.305729
-0.339967
-0.350008
-0.324822
-0.314782
-0.350008
-0.361036
-0.335851
-0.324822
-0.361036
-0.373052
-0.347867
-0.335851
-0.373052
-0.386055
-0.36087
-0.347867
-0.386055
-0.400046
-0.374861
-0.36087
-0.400046
-0.415025
-0.38984
-0.374861
-0.415025
-0.430992
-0.405807
-0.38984
-0.430992
-0.447946
-0.422761
-0.405807
-0.447946
-0.465888
-0.440703
-0.422761
-0.465888
-0.484817
-0.459632
-0.440703
-0.484817
-0.504734
-0.479549
-0.459632
-0.504734
-0.525639
-0.500454
-0.479549
-0.525639
-0.547532
-0.522346
-0.500454
-0.547532
-0.570412
-0.545226
-0.522346
-0.570412
-0.594279
-0.569094
-0.545226
-0.594279
-0.619135
-0.59395
-0.569094
-0.619135
-0.644978
-0.619793
-0.59395
-0.644978
-0.671809
-0.646623
-0.619793
-0.671809
-0.699627
-0.674442
-0.646623
-0.699627
-0.728433
-0.703248
-0.674442
-0.728433
-0.758227
-0.733041
-0.703248
-0.758227
-0.789008
-0.763823
-0.733041
-0.789008
-0.820777
-0.795592
-0.763823
-0.820777
-0.853533
-0.828348
-0.795592
-0.853533
-0.887278
-0.862093
-0.828348
-0.887278
-0.92201
-0.896824
-0.862093
-0.92201
-0.957729
-0.932544
-0.896824
-0.957729
-0.994436
-0.969251
-0.932544
-0.994436
-1.03213
-1.00695
-0.969251
-1.03213
-1.07081
-1.04563
-1.00695
-1.07081
-1.11048
-1.0853
-1.04563
-1.11048
-1.15114
-1.12596
-1.0853
-1.15114
-1.19279
-1.1676
-1.12596
-1.19279
-1.23542
-1.21024
-1.1676
-1.23542
-1.27904
-1.25386
-1.21024
-1.27904
-1.32365
-1.29846
-1.25386
-1.32365
-1.36925
-1.34406
-1.29846
-1.36925
-1.41583
-1.39064
-1.34406
-1.41583
-1.4634
-1.43822
-1.39064
-1.4634
-1.51196
-1.48678
-1.43822
-1.51196
-1.56151
-1.53632
-1.48678
-1.56151
-1.61204
-1.58686
-1.53632
-1.61204
-1.66356
-1.63838
-1.58686
-1.66356
-1.71607
-1.69089
-1.63838
-1.71607
-1.76957
-1.74439
-1.69089
-1.76957
-1.82406
-1.79887
-1.74439
-1.82406
-1.87953
-1.85434
-1.79887
-1.87953
-1.93599
-1.9108
-1.85434
-1.93599
-1.99344
-1.96825
-1.9108
-1.99344
-2.05187
-2.02669
-1.96825
-2.05187
-2.1113
-2.08611
-2.02669
-2.1113
-2.17171
-2.14652
-2.08611
-2.17171
-2.23311
-2.20792
-2.14652
-2.23311
-2.29549
-2.27031
-2.20792
-2.29549
-2.35887
-2.33368
-2.27031
-2.35887
-2.42323
-2.39804
-2.33368
-2.42323
-2.48858
-2.46339
-2.39804
-2.48858
-2.55491
-2.52973
-2.46339
-2.55491
-2.62224
-2.59705
-2.52973
-2.62224
-2.69055
-2.66536
-2.59705
-2.69055
-2.75985
-2.73466
-2.66536
-2.75985
-2.83014
-2.80495
-2.73466
-2.83014
-2.90141
-2.87623
-2.80495
-2.90141
-2.97368
-2.94849
-2.87623
-2.97368
-3.04693
-3.02174
-2.94849
-3.04693
-3.12116
-3.09598
-3.02174
-3.12116
-3.19639
-3.1712
-3.09598
-3.19639
-3.2726
-3.24742
-3.1712
-3.2726
-3.3498
-3.32462
-3.24742
-3.3498
-3.42799
-3.40281
-3.32462
-3.42799
-3.50717
-3.48198
-3.40281
-3.50717
-3.58733
-3.56215
-3.48198
-3.58733
-3.66848
-3.6433
-3.56215
-3.66848
-3.75062
-3.72544
-3.6433
-3.75062
-3.83375
-3.80857
-3.72544
-3.83375
-3.91787
-3.89268
-3.80857
-3.91787
-4.00297
-3.97778
-3.89268
-4.00297
-4.08906
-4.06387
-3.97778
-4.08906
-4.17614
-4.15095
-4.06387
-4.17614
-4.2642
-4.23902
-4.15095
-4.2642
-4.35325
-4.32807
-4.23902
-4.35325
-4.44329
-4.41811
-4.32807
-4.44329
-4.53432
-4.50914
-4.41811
-4.53432
-4.62634
-4.60115
-4.50914
-4.62634
-4.71934
-4.69416
-4.60115
-4.71934
-4.81333
-4.78815
-4.69416
-4.81333
-4.90831
-4.88313
-4.78815
-4.90831
-5.00428
-4.97909
-4.88313
-5.00428
-5.10123
-5.07605
-4.97909
-5.10123
-5.19917
-5.17399
-5.07605
-5.19917
-5.2981
-5.27292
-5.17399
-0.850774
-0.817358
-0.79316
-0.826577
-0.817358
-0.784929
-0.760732
-0.79316
-0.784929
-0.753489
-0.729291
-0.760732
-0.753489
-0.723035
-0.698838
-0.729291
-0.723035
-0.69357
-0.669372
-0.698838
-0.69357
-0.665092
-0.640894
-0.669372
-0.665092
-0.637601
-0.613404
-0.640894
-0.637601
-0.611099
-0.586901
-0.613404
-0.611099
-0.585584
-0.561386
-0.586901
-0.585584
-0.561057
-0.536859
-0.561386
-0.561057
-0.537517
-0.513319
-0.536859
-0.537517
-0.514965
-0.490767
-0.513319
-0.514965
-0.4934
-0.469203
-0.490767
-0.4934
-0.472824
-0.448626
-0.469203
-0.472824
-0.453235
-0.429037
-0.448626
-0.453235
-0.434633
-0.410436
-0.429037
-0.434633
-0.41702
-0.392822
-0.410436
-0.41702
-0.400393
-0.376196
-0.392822
-0.400393
-0.384755
-0.360558
-0.376196
-0.384755
-0.370104
-0.345907
-0.360558
-0.370104
-0.356441
-0.332244
-0.345907
-0.356441
-0.343766
-0.319568
-0.332244
-0.343766
-0.332078
-0.30788
-0.319568
-0.332078
-0.321378
-0.29718
-0.30788
-0.321378
-0.311665
-0.287468
-0.29718
-0.311665
-0.30294
-0.278743
-0.287468
-0.30294
-0.295203
-0.271006
-0.278743
-0.295203
-0.288454
-0.264256
-0.271006
-0.288454
-0.282692
-0.258494
-0.264256
-0.282692
-0.277917
-0.25372
-0.258494
-0.277917
-0.274131
-0.249933
-0.25372
-0.274131
-0.271332
-0.247134
-0.249933
-0.271332
-0.269521
-0.245323
-0.247134
-0.269521
-0.268697
-0.2445
-0.245323
-0.268697
-0.268861
-0.244664
-0.2445
-0.268861
-0.270013
-0.245815
-0.244664
-0.270013
-0.272152
-0.247955
-0.245815
-0.272152
-0.275279
-0.251082
-0.247955
-0.275279
-0.279394
-0.255196
-0.251082
-0.279394
-0.284496
-0.260299
-0.255196
-0.284496
-0.290586
-0.266388
-0.260299
-0.290586
-0.297664
-0.273466
-0.266388
-0.297664
-0.305729
-0.281531
-0.273466
-0.305729
-0.314782
-0.290584
-0.281531
-0.314782
-0.324822
-0.300625
-0.290584
-0.324822
-0.335851
-0.311653
-0.300625
-0.335851
-0.347867
-0.323669
-0.311653
-0.347867
-0.36087
-0.336673
-0.323669
-0.36087
-0.374861
-0.350664
-0.336673
-0.374861
-0.38984
-0.365643
-0.350664
-0.38984
-0.405807
-0.381609
-0.365643
-0.405807
-0.422761
-0.398563
-0.381609
-0.422761
-0.440703
-0.416505
-0.398563
-0.440703
-0.459632
-0.435435
-0.416505
-0.459632
-0.479549
-0.455352
-0.435435
-0.479549
-0.500454
-0.476256
-0.455352
-0.500454
-0.522346
-0.498149
-0.476256
-0.522346
-0.545226
-0.521029
-0.498149
-0.545226
-0.569094
-0.544897
-0.521029
-0.569094
-0.59395
-0.569752
-0.544897
-0.59395
-0.619793
-0.595595
-0.569752
-0.619793
-0.646623
-0.622426
-0.595595
-0.646623
-0.674442
-0.650244
-0.622426
-0.674442
-0.703248
-0.67905
-0.650244
-0.703248
-0.733041
-0.708844
-0.67905
-0.733041
-0.763823
-0.739625
-0.708844
-0.763823
-0.795592
-0.771394
-0.739625
-0.795592
-0.828348
-0.804151
-0.771394
-0.828348
-0.862093
-0.837895
-0.804151
-0.862093
-0.896824
-0.872627
-0.837895
-0.896824
-0.932544
-0.908347
-0.872627
-0.932544
-0.969251
-0.945054
-0.908347
-0.969251
-1.00695
-0.982749
-0.945054
-1.00695
-1.04563
-1.02143
-0.982749
-1.04563
-1.0853
-1.0611
-1.02143
-1.0853
-1.12596
-1.10176
-1.0611
-1.12596
-1.1676
-1.1434
-1.10176
-1.1676
-1.21024
-1.18604
-1.1434
-1.21024
-1.25386
-1.22966
-1.18604
-1.25386
-1.29846
-1.27427
-1.22966
-1.29846
-1.34406
-1.31986
-1.27427
-1.34406
-1.39064
-1.36645
-1.31986
-1.39064
-1.43822
-1.41402
-1.36645
-1.43822
-1.48678
-1.46258
-1.41402
-1.48678
-1.53632
-1.51212
-1.46258
-1.53632
-1.58686
-1.56266
-1.51212
-1.58686
-1.63838
-1.61418
-1.56266
-1.63838
-1.69089
-1.66669
-1.61418
-1.69089
-1.74439
-1.72019
-1.66669
-1.74439
-1.79887
-1.77467
-1.72019
-1.79887
-1.85434
-1.83015
-1.77467
-1.85434
-1.9108
-1.88661
-1.83015
-1.9108
-1.96825
-1.94405
-1.88661
-1.96825
-2.02669
-2.00249
-1.94405
-2.02669
-2.08611
-2.06191
-2.00249
-2.08611
-2.14652
-2.12232
-2.06191
-2.14652
-2.20792
-2.18372
-2.12232
-2.20792
-2.27031
-2.24611
-2.18372
-2.27031
-2.33368
-2.30948
-2.24611
-2.33368
-2.39804
-2.37384
-2.30948
-2.39804
-2.46339
-2.43919
-2.37384
-2.46339
-2.52973
-2.50553
-2.43919
-2.52973
-2.59705
-2.57285
-2.50553
-2.59705
-2.66536
-2.64117
-2.57285
-2.66536
-2.73466
-2.71047
-2.64117
-2.73466
-2.80495
-2.78075
-2.71047
-2.80495
-2.87623
-2.85203
-2.78075
-2.87623
-2.94849
-2.92429
-2.85203
-2.94849
-3.02174
-2.99754
-2.92429
-3.02174
-3.09598
-3.07178
-2.99754
-3.09598
-3.1712
-3.14701
-3.07178
-3.1712
-3.24742
-3.22322
-3.14701
-3.24742
-3.32462
-3.30042
-3.22322
-3.32462
-3.40281
-3.37861
-3.30042
-3.40281
-3.48198
-3.45779
-3.37861
-3.48198
-3.56215
-3.53795
-3.45779
-3.56215
-3.6433
-3.6191
-3.53795
-3.6433
-3.72544
-3.70124
-3.6191
-3.72544
-3.80857
-3.78437
-3.70124
-3.80857
-3.89268
-3.86848
-3.78437
-3.89268
-3.97778
-3.95359
-3.86848
-3.97778
-4.06387
-4.03968
-3.95359
-4.06387
-4.15095
-4.12675
-4.03968
-4.15095
-4.23902
-4.21482
-4.12675
-4.23902
-4.32807
-4.30387
-4.21482
-4.32807
-4.41811
-4.39391
-4.30387
-4.41811
-4.50914
-4.48494
-4.39391
-4.50914
-4.60115
-4.57696
-4.48494
-4.60115
-4.69416
-4.66996
-4.57696
-4.69416
-4.78815
-4.76395
-4.66996
-4.78815
-4.88313
-4.85893
-4.76395
-4.88313
-4.97909
-4.9549
-4.85893
-4.97909
-5.07605
-5.05185
-4.9549
-5.07605
-5.17399
-5.14979
-5.05185
-5.17399
-5.27292
-5.24872
-5.14979
-0.826577
-0.79316
-0.769951
-0.803367
-0.79316
-0.760732
-0.737522
-0.769951
-0.760732
-0.729291
-0.706081
-0.737522
-0.729291
-0.698838
-0.675628
-0.706081
-0.698838
-0.669372
-0.646162
-0.675628
-0.669372
-0.640894
-0.617684
-0.646162
-0.640894
-0.613404
-0.590194
-0.617684
-0.613404
-0.586901
-0.563691
-0.590194
-0.586901
-0.561386
-0.538176
-0.563691
-0.561386
-0.536859
-0.513649
-0.538176
-0.536859
-0.513319
-0.490109
-0.513649
-0.513319
-0.490767
-0.467557
-0.490109
-0.490767
-0.469203
-0.445993
-0.467557
-0.469203
-0.448626
-0.425416
-0.445993
-0.448626
-0.429037
-0.405827
-0.425416
-0.429037
-0.410436
-0.387226
-0.405827
-0.410436
-0.392822
-0.369612
-0.387226
-0.392822
-0.376196
-0.352986
-0.369612
-0.376196
-0.360558
-0.337348
-0.352986
-0.360558
-0.345907
-0.322697
-0.337348
-0.345907
-0.332244
-0.309034
-0.322697
-0.332244
-0.319568
-0.296358
-0.309034
-0.319568
-0.30788
-0.28467
-0.296358
-0.30788
-0.29718
-0.27397
-0.28467
-0.29718
-0.287468
-0.264258
-0.27397
-0.287468
-0.278743
-0.255533
-0.264258
-0.278743
-0.271006
-0.247796
-0.255533
-0.271006
-0.264256
-0.241046
-0.247796
-0.264256
-0.258494
-0.235284
-0.241046
-0.258494
-0.25372
-0.23051
-0.235284
-0.25372
-0.249933
-0.226723
-0.23051
-0.249933
-0.247134
-0.223925
-0.226723
-0.247134
-0.245323
-0.222113
-0.223925
-0.245323
-0.2445
-0.22129
-0.222113
-0.2445
-0.244664
-0.221454
-0.22129
-0.244664
-0.245815
-0.222605
-0.221454
-0.245815
-0.247955
-0.224745
-0.222605
-0.247955
-0.251082
-0.227872
-0.224745
-0.251082
-0.255196
-0.231986
-0.227872
-0.255196
-0.260299
-0.237089
-0.231986
-0.260299
-0.266388
-0.243179
-0.237089
-0.266388
-0.273466
-0.250256
-0.243179
-0.273466
-0.281531
-0.258321
-0.250256
-0.281531
-0.290584
-0.267374
-0.258321
-0.290584
-0.300625
-0.277415
-0.267374
-0.300625
-0.311653
-0.288443
-0.277415
-0.311653
-0.323669
-0.300459
-0.288443
-0.323669
-0.336673
-0.313463
-0.300459
-0.336673
-0.350664
-0.327454
-0.313463
-0.350664
-0.365643
-0.342433
-0.327454
-0.365643
-0.381609
-0.358399
-0.342433
-0.381609
-0.398563
-0.375353
-0.358399
-0.398563
-0.416505
-0.393295
-0.375353
-0.416505
-0.435435
-0.412225
-0.393295
-0.435435
-0.455352
-0.432142
-0.412225
-0.455352
-0.476256
-0.453047
-0.432142
-0.476256
-0.498149
-0.474939
-0.453047
-0.498149
-0.521029
-0.497819
-0.474939
-0.521029
-0.544897
-0.521687
-0.497819
-0.544897
-0.569752
-0.546542
-0.521687
-0.569752
-0.595595
-0.572385
-0.546542
-0.595595
-0.622426
-0.599216
-0.572385
-0.622426
-0.650244
-0.627034
-0.599216
-0.650244
-0.67905
-0.65584
-0.627034
-0.67905
-0.708844
-0.685634
-0.65584
-0.708844
-0.739625
-0.716415
-0.685634
-0.739625
-0.771394
-0.748184
-0.716415
-0.771394
-0.804151
-0.780941
-0.748184
-0.804151
-0.837895
-0.814685
-0.780941
-0.837895
-0.872627
-0.849417
-0.814685
-0.872627
-0.908347
-0.885137
-0.849417
-0.908347
-0.945054
-0.921844
-0.885137
-0.945054
-0.982749
-0.959539
-0.921844
-0.982749
-1.02143
-0.998221
-0.959539
-1.02143
-1.0611
-1.03789
-0.998221
-1.0611
-1.10176
-1.07855
-1.03789
-1.10176
-1.1434
-1.12019
-1.07855
-1.1434
-1.18604
-1.16283
-1.12019
-1.18604
-1.22966
-1.20645
-1.16283
-1.22966
-1.27427
-1.25106
-1.20645
-1.27427
-1.31986
-1.29665
-1.25106
-1.31986
-1.36645
-1.34324
-1.29665
-1.36645
-1.41402
-1.39081
-1.34324
-1.41402
-1.46258
-1.43937
-1.39081
-1.46258
-1.51212
-1.48891
-1.43937
-1.51212
-1.56266
-1.53945
-1.48891
-1.56266
-1.61418
-1.59097
-1.53945
-1.61418
-1.66669
-1.64348
-1.59097
-1.66669
-1.72019
-1.69698
-1.64348
-1.72019
-1.77467
-1.75146
-1.69698
-1.77467
-1.83015
-1.80694
-1.75146
-1.83015
-1.88661
-1.8634
-1.80694
-1.88661
-1.94405
-1.92084
-1.8634
-1.94405
-2.00249
-1.97928
-1.92084
-2.00249
-2.06191
-2.0387
-1.97928
-2.06191
-2.12232
-2.09911
-2.0387
-2.12232
-2.18372
-2.16051
-2.09911
-2.18372
-2.24611
-2.2229
-2.16051
-2.24611
-2.30948
-2.28627
-2.2229
-2.30948
-2.37384
-2.35063
-2.28627
-2.37384
-2.43919
-2.41598
-2.35063
-2.43919
-2.50553
-2.48232
-2.41598
-2.50553
-2.57285
-2.54964
-2.48232
-2.57285
-2.64117
-2.61796
-2.54964
-2.64117
-2.71047
-2.68726
-2.61796
-2.71047
-2.78075
-2.75754
-2.68726
-2.78075
-2.85203
-2.82882
-2.75754
-2.85203
-2.92429
-2.90108
-2.82882
-2.92429
-2.99754
-2.97433
-2.90108
-2.99754
-3.07178
-3.04857
-2.97433
-3.07178
-3.14701
-3.1238
-3.04857
-3.14701
-3.22322
-3.20001
-3.1238
-3.22322
-3.30042
-3.27721
-3.20001
-3.30042
-3.37861
-3.3554
-3.27721
-3.37861
-3.45779
-3.43458
-3.3554
-3.45779
-3.53795
-3.51474
-3.43458
-3.53795
-3.6191
-3.59589
-3.51474
-3.6191
-3.70124
-3.67803
-3.59589
-3.70124
-3.78437
-3.76116
-3.67803
-3.78437
-3.86848
-3.84527
-3.76116
-3.86848
-3.95359
-3.93038
-3.84527
-3.95359
-4.03968
-4.01647