# vtk DataFile Version 1.0
unstructured Grid
ASCII
DATASET UNSTRUCTURED_GRID
POINTS 23424 float 
0 0	 0.0
0.0222222 0	 0.0
0.0222222 0.0222222	 0.0
0 0.0222222	 0.0
0.0222222 0	 0.0
0.0444444 0	 0.0
0.0444444 0.0222222	 0.0
0.0222222 0.0222222	 0.0
0.0444444 0	 0.0
0.0666667 0	 0.0
0.0666667 0.0222222	 0.0
0.0444444 0.0222222	 0.0
0.0666667 0	 0.0
0.0888889 0	 0.0
0.0888889 0.0222222	 0.0
0.0666667 0.0222222	 0.0
0.0888889 0	 0.0
0.111111 0	 0.0
0.111111 0.0222222	 0.0
0.0888889 0.0222222	 0.0
0.111111 0	 0.0
0.133333 0	 0.0
0.133333 0.0222222	 0.0
0.111111 0.0222222	 0.0
0.133333 0	 0.0
0.155556 0	 0.0
0.155556 0.0222222	 0.0
0.133333 0.0222222	 0.0
0.155556 0	 0.0
0.177778 0	 0.0
0.177778 0.0222222	 0.0
0.155556 0.0222222	 0.0
0.177778 0	 0.0
0.2 0	 0.0
0.2 0.0222222	 0.0
0.177778 0.0222222	 0.0
0.2 0	 0.0
0.222222 0	 0.0
0.222222 0.0222222	 0.0
0.2 0.0222222	 0.0
0.222222 0	 0.0
0.244444 0	 0.0
0.244444 0.0222222	 0.0
0.222222 0.0222222	 0.0
0.244444 0	 0.0
0.266667 0	 0.0
0.266667 0.0222222	 0.0
0.244444 0.0222222	 0.0
0.266667 0	 0.0
0.288889 0	 0.0
0.288889 0.0222222	 0.0
0.266667 0.0222222	 0.0
0.288889 0	 0.0
0.311111 0	 0.0
0.311111 0.0222222	 0.0
0.288889 0.0222222	 0.0
0.311111 0	 0.0
0.333333 0	 0.0
0.333333 0.0222222	 0.0
0.311111 0.0222222	 0.0
0.333333 0	 0.0
0.355556 0	 0.0
0.355556 0.0222222	 0.0
0.333333 0.0222222	 0.0
0.355556 0	 0.0
0.377778 0	 0.0
0.377778 0.0222222	 0.0
0.355556 0.0222222	 0.0
0.377778 0	 0.0
0.4 0	 0.0
0.4 0.0222222	 0.0
0.377778 0.0222222	 0.0
0.4 0	 0.0
0.422222 0	 0.0
0.422222 0.0222222	 0.0
0.4 0.0222222	 0.0
0.422222 0	 0.0
0.444444 0	 0.0
0.444444 0.0222222	 0.0
0.422222 0.0222222	 0.0
0.444444 0	 0.0
0.466667 0	 0.0
0.466667 0.0222222	 0.0
0.444444 0.0222222	 0.0
0.466667 0	 0.0
0.488889 0	 0.0
0.488889 0.0222222	 0.0
0.466667 0.0222222	 0.0
0.488889 0	 0.0
0.511111 0	 0.0
0.511111 0.0222222	 0.0
0.488889 0.0222222	 0.0
0.511111 0	 0.0
0.533333 0	 0.0
0.533333 0.0222222	 0.0
0.511111 0.0222222	 0.0
0.533333 0	 0.0
0.555556 0	 0.0
0.555556 0.0222222	 0.0
0.533333 0.0222222	 0.0
0.555556 0	 0.0
0.577778 0	 0.0
0.577778 0.0222222	 0.0
0.555556 0.0222222	 0.0
0.577778 0	 0.0
0.6 0	 0.0
0.6 0.0222222	 0.0
0.577778 0.0222222	 0.0
0.6 0	 0.0
0.622222 0	 0.0
0.622222 0.0222222	 0.0
0.6 0.0222222	 0.0
0.622222 0	 0.0
0.644444 0	 0.0
0.644444 0.0222222	 0.0
0.622222 0.0222222	 0.0
0.644444 0	 0.0
0.666667 0	 0.0
0.666667 0.0222222	 0.0
0.644444 0.0222222	 0.0
0.666667 0	 0.0
0.688889 0	 0.0
0.688889 0.0222222	 0.0
0.666667 0.0222222	 0.0
0.688889 0	 0.0
0.711111 0	 0.0
0.711111 0.0222222	 0.0
0.688889 0.0222222	 0.0
0.711111 0	 0.0
0.733333 0	 0.0
0.733333 0.0222222	 0.0
0.711111 0.0222222	 0.0
0.733333 0	 0.0
0.755556 0	 0.0
0.755556 0.0222222	 0.0
0.733333 0.0222222	 0.0
0.755556 0	 0.0
0.777778 0	 0.0
0.777778 0.0222222	 0.0
0.755556 0.0222222	 0.0
0.777778 0	 0.0
0.8 0	 0.0
0.8 0.0222222	 0.0
0.777778 0.0222222	 0.0
0.8 0	 0.0
0.822222 0	 0.0
0.822222 0.0222222	 0.0
0.8 0.0222222	 0.0
0.822222 0	 0.0
0.844444 0	 0.0
0.844444 0.0222222	 0.0
0.822222 0.0222222	 0.0
0.844444 0	 0.0
0.866667 0	 0.0
0.866667 0.0222222	 0.0
0.844444 0.0222222	 0.0
0.866667 0	 0.0
0.888889 0	 0.0
0.888889 0.0222222	 0.0
0.866667 0.0222222	 0.0
0.888889 0	 0.0
0.911111 0	 0.0
0.911111 0.0222222	 0.0
0.888889 0.0222222	 0.0
0.911111 0	 0.0
0.933333 0	 0.0
0.933333 0.0222222	 0.0
0.911111 0.0222222	 0.0
0.933333 0	 0.0
0.955556 0	 0.0
0.955556 0.0222222	 0.0
0.933333 0.0222222	 0.0
0.955556 0	 0.0
0.977778 0	 0.0
0.977778 0.0222222	 0.0
0.955556 0.0222222	 0.0
0.977778 0	 0.0
1 0	 0.0
1 0.0222222	 0.0
0.977778 0.0222222	 0.0
1 0	 0.0
1.02222 0	 0.0
1.02222 0.0222222	 0.0
1 0.0222222	 0.0
1.02222 0	 0.0
1.04444 0	 0.0
1.04444 0.0222222	 0.0
1.02222 0.0222222	 0.0
1.04444 0	 0.0
1.06667 0	 0.0
1.06667 0.0222222	 0.0
1.04444 0.0222222	 0.0
1.06667 0	 0.0
1.08889 0	 0.0
1.08889 0.0222222	 0.0
1.06667 0.0222222	 0.0
1.08889 0	 0.0
1.11111 0	 0.0
1.11111 0.0222222	 0.0
1.08889 0.0222222	 0.0
1.11111 0	 0.0
1.13333 0	 0.0
1.13333 0.0222222	 0.0
1.11111 0.0222222	 0.0
1.13333 0	 0.0
1.15556 0	 0.0
1.15556 0.0222222	 0.0
1.13333 0.0222222	 0.0
1.15556 0	 0.0
1.17778 0	 0.0
1.17778 0.0222222	 0.0
1.15556 0.0222222	 0.0
1.17778 0	 0.0
1.2 0	 0.0
1.2 0.0222222	 0.0
1.17778 0.0222222	 0.0
1.2 0	 0.0
1.22222 0	 0.0
1.22222 0.0222222	 0.0
1.2 0.0222222	 0.0
1.22222 0	 0.0
1.24444 0	 0.0
1.24444 0.0222222	 0.0
1.22222 0.0222222	 0.0
1.24444 0	 0.0
1.26667 0	 0.0
1.26667 0.0222222	 0.0
1.24444 0.0222222	 0.0
1.26667 0	 0.0
1.28889 0	 0.0
1.28889 0.0222222	 0.0
1.26667 0.0222222	 0.0
1.28889 0	 0.0
1.31111 0	 0.0
1.31111 0.0222222	 0.0
1.28889 0.0222222	 0.0
1.31111 0	 0.0
1.33333 0	 0.0
1.33333 0.0222222	 0.0
1.31111 0.0222222	 0.0
1.33333 0	 0.0
1.35556 0	 0.0
1.35556 0.0222222	 0.0
1.33333 0.0222222	 0.0
1.35556 0	 0.0
1.37778 0	 0.0
1.37778 0.0222222	 0.0
1.35556 0.0222222	 0.0
1.37778 0	 0.0
1.4 0	 0.0
1.4 0.0222222	 0.0
1.37778 0.0222222	 0.0
1.4 0	 0.0
1.42222 0	 0.0
1.42222 0.0222222	 0.0
1.4 0.0222222	 0.0
1.42222 0	 0.0
1.44444 0	 0.0
1.44444 0.0222222	 0.0
1.42222 0.0222222	 0.0
1.44444 0	 0.0
1.46667 0	 0.0
1.46667 0.0222222	 0.0
1.44444 0.0222222	 0.0
1.46667 0	 0.0
1.48889 0	 0.0
1.48889 0.0222222	 0.0
1.46667 0.0222222	 0.0
1.48889 0	 0.0
1.51111 0	 0.0
1.51111 0.0222222	 0.0
1.48889 0.0222222	 0.0
1.51111 0	 0.0
1.53333 0	 0.0
1.53333 0.0222222	 0.0
1.51111 0.0222222	 0.0
1.53333 0	 0.0
1.55556 0	 0.0
1.55556 0.0222222	 0.0
1.53333 0.0222222	 0.0
1.55556 0	 0.0
1.57778 0	 0.0
1.57778 0.0222222	 0.0
1.55556 0.0222222	 0.0
1.57778 0	 0.0
1.6 0	 0.0
1.6 0.0222222	 0.0
1.57778 0.0222222	 0.0
1.6 0	 0.0
1.62222 0	 0.0
1.62222 0.0222222	 0.0
1.6 0.0222222	 0.0
1.62222 0	 0.0
1.64444 0	 0.0
1.64444 0.0222222	 0.0
1.62222 0.0222222	 0.0
1.64444 0	 0.0
1.66667 0	 0.0
1.66667 0.0222222	 0.0
1.64444 0.0222222	 0.0
1.66667 0	 0.0
1.68889 0	 0.0
1.68889 0.0222222	 0.0
1.66667 0.0222222	 0.0
1.68889 0	 0.0
1.71111 0	 0.0
1.71111 0.0222222	 0.0
1.68889 0.0222222	 0.0
1.71111 0	 0.0
1.73333 0	 0.0
1.73333 0.0222222	 0.0
1.71111 0.0222222	 0.0
1.73333 0	 0.0
1.75556 0	 0.0
1.75556 0.0222222	 0.0
1.73333 0.0222222	 0.0
1.75556 0	 0.0
1.77778 0	 0.0
1.77778 0.0222222	 0.0
1.75556 0.0222222	 0.0
1.77778 0	 0.0
1.8 0	 0.0
1.8 0.0222222	 0.0
1.77778 0.0222222	 0.0
1.8 0	 0.0
1.82222 0	 0.0
1.82222 0.0222222	 0.0
1.8 0.0222222	 0.0
1.82222 0	 0.0
1.84444 0	 0.0
1.84444 0.0222222	 0.0
1.82222 0.0222222	 0.0
1.84444 0	 0.0
1.86667 0	 0.0
1.86667 0.0222222	 0.0
1.84444 0.0222222	 0.0
1.86667 0	 0.0
1.88889 0	 0.0
1.88889 0.0222222	 0.0
1.86667 0.0222222	 0.0
1.88889 0	 0.0
1.91111 0	 0.0
1.91111 0.0222222	 0.0
1.88889 0.0222222	 0.0
1.91111 0	 0.0
1.93333 0	 0.0
1.93333 0.0222222	 0.0
1.91111 0.0222222	 0.0
1.93333 0	 0.0
1.95556 0	 0.0
1.95556 0.0222222	 0.0
1.93333 0.0222222	 0.0
1.95556 0	 0.0
1.97778 0	 0.0
1.97778 0.0222222	 0.0
1.95556 0.0222222	 0.0
1.97778 0	 0.0
2 0	 0.0
2 0.0222222	 0.0
1.97778 0.0222222	 0.0
2 0	 0.0
2.02222 0	 0.0
2.02222 0.0222222	 0.0
2 0.0222222	 0.0
2.02222 0	 0.0
2.04444 0	 0.0
2.04444 0.0222222	 0.0
2.02222 0.0222222	 0.0
2.04444 0	 0.0
2.06667 0	 0.0
2.06667 0.0222222	 0.0
2.04444 0.0222222	 0.0
2.06667 0	 0.0
2.08889 0	 0.0
2.08889 0.0222222	 0.0
2.06667 0.0222222	 0.0
2.08889 0	 0.0
2.11111 0	 0.0
2.11111 0.0222222	 0.0
2.08889 0.0222222	 0.0
2.11111 0	 0.0
2.13333 0	 0.0
2.13333 0.0222222	 0.0
2.11111 0.0222222	 0.0
2.13333 0	 0.0
2.15556 0	 0.0
2.15556 0.0222222	 0.0
2.13333 0.0222222	 0.0
2.15556 0	 0.0
2.17778 0	 0.0
2.17778 0.0222222	 0.0
2.15556 0.0222222	 0.0
2.17778 0	 0.0
2.2 0	 0.0
2.2 0.0222222	 0.0
2.17778 0.0222222	 0.0
2.2 0	 0.0
2.22222 0	 0.0
2.22222 0.0222222	 0.0
2.2 0.0222222	 0.0
2.22222 0	 0.0
2.24444 0	 0.0
2.24444 0.0222222	 0.0
2.22222 0.0222222	 0.0
2.24444 0	 0.0
2.26667 0	 0.0
2.26667 0.0222222	 0.0
2.24444 0.0222222	 0.0
2.26667 0	 0.0
2.28889 0	 0.0
2.28889 0.0222222	 0.0
2.26667 0.0222222	 0.0
2.28889 0	 0.0
2.31111 0	 0.0
2.31111 0.0222222	 0.0
2.28889 0.0222222	 0.0
2.31111 0	 0.0
2.33333 0	 0.0
2.33333 0.0222222	 0.0
2.31111 0.0222222	 0.0
2.33333 0	 0.0
2.35556 0	 0.0
2.35556 0.0222222	 0.0
2.33333 0.0222222	 0.0
2.35556 0	 0.0
2.37778 0	 0.0
2.37778 0.0222222	 0.0
2.35556 0.0222222	 0.0
2.37778 0	 0.0
2.4 0	 0.0
2.4 0.0222222	 0.0
2.37778 0.0222222	 0.0
2.4 0	 0.0
2.42222 0	 0.0
2.42222 0.0222222	 0.0
2.4 0.0222222	 0.0
2.42222 0	 0.0
2.44444 0	 0.0
2.44444 0.0222222	 0.0
2.42222 0.0222222	 0.0
2.44444 0	 0.0
2.46667 0	 0.0
2.46667 0.0222222	 0.0
2.44444 0.0222222	 0.0
2.46667 0	 0.0
2.48889 0	 0.0
2.48889 0.0222222	 0.0
2.46667 0.0222222	 0.0
2.48889 0	 0.0
2.51111 0	 0.0
2.51111 0.0222222	 0.0
2.48889 0.0222222	 0.0
2.51111 0	 0.0
2.53333 0	 0.0
2.53333 0.0222222	 0.0
2.51111 0.0222222	 0.0
2.53333 0	 0.0
2.55556 0	 0.0
2.55556 0.0222222	 0.0
2.53333 0.0222222	 0.0
2.55556 0	 0.0
2.57778 0	 0.0
2.57778 0.0222222	 0.0
2.55556 0.0222222	 0.0
2.57778 0	 0.0
2.6 0	 0.0
2.6 0.0222222	 0.0
2.57778 0.0222222	 0.0
2.6 0	 0.0
2.62222 0	 0.0
2.62222 0.0222222	 0.0
2.6 0.0222222	 0.0
2.62222 0	 0.0
2.64444 0	 0.0
2.64444 0.0222222	 0.0
2.62222 0.0222222	 0.0
2.64444 0	 0.0
2.66667 0	 0.0
2.66667 0.0222222	 0.0
2.64444 0.0222222	 0.0
2.66667 0	 0.0
2.68889 0	 0.0
2.68889 0.0222222	 0.0
2.66667 0.0222222	 0.0
2.68889 0	 0.0
2.71111 0	 0.0
2.71111 0.0222222	 0.0
2.68889 0.0222222	 0.0
2.71111 0	 0.0
2.73333 0	 0.0
2.73333 0.0222222	 0.0
2.71111 0.0222222	 0.0
2.73333 0	 0.0
2.75556 0	 0.0
2.75556 0.0222222	 0.0
2.73333 0.0222222	 0.0
2.75556 0	 0.0
2.77778 0	 0.0
2.77778 0.0222222	 0.0
2.75556 0.0222222	 0.0
2.77778 0	 0.0
2.8 0	 0.0
2.8 0.0222222	 0.0
2.77778 0.0222222	 0.0
2.8 0	 0.0
2.82222 0	 0.0
2.82222 0.0222222	 0.0
2.8 0.0222222	 0.0
2.82222 0	 0.0
2.84444 0	 0.0
2.84444 0.0222222	 0.0
2.82222 0.0222222	 0.0
2.84444 0	 0.0
2.86667 0	 0.0
2.86667 0.0222222	 0.0
2.84444 0.0222222	 0.0
2.86667 0	 0.0
2.88889 0	 0.0
2.88889 0.0222222	 0.0
2.86667 0.0222222	 0.0
2.88889 0	 0.0
2.91111 0	 0.0
2.91111 0.0222222	 0.0
2.88889 0.0222222	 0.0
2.91111 0	 0.0
[...]
POINT_DATA 23424
SCALARS levelset_first float
LOOKUP_TABLE default
-2.5649
-2.49881
-2.47263
-2.53873
-2.49881
-2.4337
-2.40753
-2.47263
-2.4337
-2.36958
-2.3434
-2.40753
-2.36958
-2.30644
-2.28027
-2.3434
-2.30644
-2.24429
-2.21812
-2.28027
-2.24429
-2.18314
-2.15696
-2.21812
-2.18314
-2.12296
-2.09679
-2.15696
-2.12296
-2.06378
-2.03761
-2.09679
-2.06378
-2.00558
-1.97941
-2.03761
-2.00558
-1.94838
-1.9222
-1.97941
-1.94838
-1.89216
-1.86598
-1.9222
-1.89216
-1.83692
-1.81075
-1.86598
-1.83692
-1.78268
-1.7565
-1.81075
-1.78268
-1.72942
-1.70325
-1.7565
-1.72942
-1.67715
-1.65098
-1.70325
-1.67715
-1.62587
-1.59969
-1.65098
-1.62587
-1.57557
-1.5494
-1.59969
-1.57557
-1.52626
-1.50009
-1.5494
-1.52626
-1.47794
-1.45177
-1.50009
-1.47794
-1.43061
-1.40444
-1.45177
-1.43061
-1.38427
-1.3581
-1.40444
-1.38427
-1.33891
-1.31274
-1.3581
-1.33891
-1.29454
-1.26837
-1.31274
-1.29454
-1.25116
-1.22499
-1.26837
-1.25116
-1.20877
-1.1826
-1.22499
-1.20877
-1.16736
-1.14119
-1.1826
-1.16736
-1.12694
-1.10077
-1.14119
-1.12694
-1.08751
-1.06134
-1.10077
-1.08751
-1.04907
-1.0229
-1.06134
-1.04907
-1.01162
-0.985442
-1.0229
-1.01162
-0.975147
-0.948975
-0.985442
-0.975147
-0.939667
-0.913495
-0.948975
-0.939667
-0.905175
-0.879002
-0.913495
-0.905175
-0.87167
-0.845497
-0.879002
-0.87167
-0.839153
-0.81298
-0.845497
-0.839153
-0.807624
-0.781451
-0.81298
-0.807624
-0.777082
-0.750909
-0.781451
-0.777082
-0.747528
-0.721355
-0.750909
-0.747528
-0.718962
-0.692789
-0.721355
-0.718962
-0.691383
-0.66521
-0.692789
-0.691383
-0.664792
-0.638619
-0.66521
-0.664792
-0.639188
-0.613015
-0.638619
-0.639188
-0.614572
-0.588399
-0.613015
-0.614572
-0.590944
-0.564771
-0.588399
-0.590944
-0.568304
-0.542131
-0.564771
-0.568304
-0.546651
-0.520478
-0.542131
-0.546651
-0.525985
-0.499813
-0.520478
-0.525985
-0.506308
-0.480135
-0.499813
-0.506308
-0.487618
-0.461445
-0.480135
-0.487618
-0.469916
-0.443743
-0.461445
-0.469916
-0.453201
-0.427028
-0.443743
-0.453201
-0.437474
-0.411301
-0.427028
-0.437474
-0.422735
-0.396562
-0.411301
-0.422735
-0.408983
-0.38281
-0.396562
-0.408983
-0.396219
-0.370046
-0.38281
-0.396219
-0.384443
-0.35827
-0.370046
-0.384443
-0.373654
-0.347481
-0.35827
-0.373654
-0.363853
-0.33768
-0.347481
-0.363853
-0.35504
-0.328867
-0.33768
-0.35504
-0.347214
-0.321041
-0.328867
-0.347214
-0.340376
-0.314203
-0.321041
-0.340376
-0.334526
-0.308353
-0.314203
-0.334526
-0.329663
-0.30349
-0.308353
-0.329663
-0.325788
-0.299615
-0.30349
-0.325788
-0.3229
-0.296728
-0.299615
-0.3229
-0.321001
-0.294828
-0.296728
-0.321001
-0.320089
-0.293916
-0.294828
-0.320089
-0.320164
-0.293991
-0.293916
-0.320164
-0.321227
-0.295054
-0.293991
-0.321227
-0.323278
-0.297105
-0.295054
-0.323278
-0.326317
-0.300144
-0.297105
-0.326317
-0.330343
-0.30417
-0.300144
-0.330343
-0.335357
-0.309184
-0.30417
-0.335357
-0.341358
-0.315185
-0.309184
-0.341358
-0.348347
-0.322174
-0.315185
-0.348347
-0.356324
-0.330151
-0.322174
-0.356324
-0.365288
-0.339115
-0.330151
-0.365288
-0.37524
-0.349068
-0.339115
-0.37524
-0.38618
-0.360007
-0.349068
-0.38618
-0.398107
-0.371935
-0.360007
-0.398107
-0.411022
-0.38485
-0.371935
-0.411022
-0.424925
-0.398752
-0.38485
-0.424925
-0.439816
-0.413643
-0.398752
-0.439816
-0.455693
-0.429521
-0.413643
-0.455693
-0.472559
-0.446386
-0.429521
-0.472559
-0.490412
-0.46424
-0.446386
-0.490412
-0.509253
-0.483081
-0.46424
-0.509253
-0.529082
-0.502909
-0.483081
-0.529082
-0.549898
-0.523725
-0.502909
-0.549898
-0.571702
-0.545529
-0.523725
-0.571702
-0.594494
-0.568321
-0.545529
-0.594494
-0.618273
-0.5921
-0.568321
-0.618273
-0.64304
-0.616867
-0.5921
-0.64304
-0.668794
-0.642622
-0.616867
-0.668794
-0.695537
-0.669364
-0.642622
-0.695537
-0.723266
-0.697094
-0.669364
-0.723266
-0.751984
-0.725811
-0.697094
-0.751984
-0.781689
-0.755516
-0.725811
-0.781689
-0.812382
-0.786209
-0.755516
-0.812382
-0.844062
-0.81789
-0.786209
-0.844062
-0.876731
-0.850558
-0.81789
-0.876731
-0.910386
-0.884213
-0.850558
-0.910386
-0.94503
-0.918857
-0.884213
-0.94503
-0.980661
-0.954488
-0.918857
-0.980661
-1.01728
-0.991107
-0.954488
-1.01728
-1.05489
-1.02871
-0.991107
-1.05489
-1.09348
-1.06731
-1.02871
-1.09348
-1.13306
-1.10689
-1.06731
-1.13306
-1.17363
-1.14746
-1.10689
-1.17363
-1.21519
-1.18902
-1.14746
-1.21519
-1.25773
-1.23156
-1.18902
-1.25773
-1.30126
-1.27509
-1.23156
-1.30126
-1.34578
-1.31961
-1.27509
-1.34578
-1.39129
-1.36512
-1.31961
-1.39129
-1.43779
-1.41162
-1.36512
-1.43779
-1.48527
-1.4591
-1.41162
-1.48527
-1.53374
-1.50757
-1.4591
-1.53374
-1.5832
-1.55703
-1.50757
-1.5832
-1.63365
-1.60747
-1.55703
-1.63365
-1.68508
-1.65891
-1.60747
-1.68508
-1.7375
-1.71133
-1.65891
-1.7375
-1.79091
-1.76474
-1.71133
-1.79091
-1.84531
-1.81913
-1.76474
-1.84531
-1.90069
-1.87452
-1.81913
-1.90069
-1.95706
-1.93089
-1.87452
-1.95706
-2.01442
-1.98825
-1.93089
-2.01442
-2.07277
-2.0466
-1.98825
-2.07277
-2.1321
-2.10593
-2.0466
-2.1321
-2.19243
-2.16625
-2.10593
-2.19243
-2.25374
-2.22756
-2.16625
-2.25374
-2.31603
-2.28986
-2.22756
-2.31603
-2.37932
-2.35315
-2.28986
-2.37932
-2.44359
-2.41742
-2.35315
-2.44359
-2.50885
-2.48268
-2.41742
-2.50885
-2.5751
-2.54893
-2.48268
-2.53873
-2.47263
-2.44745
-2.51355
-2.47263
-2.40753
-2.38234
-2.44745
-2.40753
-2.3434
-2.31822
-2.38234
-2.3434
-2.28027
-2.25508
-2.31822
-2.28027
-2.21812
-2.19294
-2.25508
-2.21812
-2.15696
-2.13178
-2.19294
-2.15696
-2.09679
-2.07161
-2.13178
-2.09679
-2.03761
-2.01242
-2.07161
-2.03761
-1.97941
-1.95423
-2.01242
-1.97941
-1.9222
-1.89702
-1.95423
-1.9222
-1.86598
-1.8408
-1.89702
-1.86598
-1.81075
-1.78556
-1.8408
-1.81075
-1.7565
-1.73132
-1.78556
-1.7565
-1.70325
-1.67806
-1.73132
-1.70325
-1.65098
-1.62579
-1.67806
-1.65098
-1.59969
-1.57451
-1.62579
-1.59969
-1.5494
-1.52421
-1.57451
-1.5494
-1.50009
-1.47491
-1.52421
-1.50009
-1.45177
-1.42659
-1.47491
-1.45177
-1.40444
-1.37925
-1.42659
-1.40444
-1.3581
-1.33291
-1.37925
-1.3581
-1.31274
-1.28755
-1.33291
-1.31274
-1.26837
-1.24319
-1.28755
-1.26837
-1.22499
-1.1998
-1.24319
-1.22499
-1.1826
-1.15741
-1.1998
-1.1826
-1.14119
-1.116
-1.15741
-1.14119
-1.10077
-1.07559
-1.116
-1.10077
-1.06134
-1.03616
-1.07559
-1.06134
-1.0229
-0.997712
-1.03616
-1.0229
-0.985442
-0.960257
-0.997712
-0.985442
-0.948975
-0.923789
-0.960257
-0.948975
-0.913495
-0.888309
-0.923789
-0.913495
-0.879002
-0.853817
-0.888309
-0.879002
-0.845497
-0.820312
-0.853817
-0.845497
-0.81298
-0.787795
-0.820312
-0.81298
-0.781451
-0.756266
-0.787795
-0.781451
-0.750909
-0.725724
-0.756266
-0.750909
-0.721355
-0.69617
-0.725724
-0.721355
-0.692789
-0.667604
-0.69617
-0.692789
-0.66521
-0.640025
-0.667604
-0.66521
-0.638619
-0.613434
-0.640025
-0.638619
-0.613015
-0.58783
-0.613434
-0.613015
-0.588399
-0.563214
-0.58783
-0.588399
-0.564771
-0.539586
-0.563214
-0.564771
-0.542131
-0.516946
-0.539586
-0.542131
-0.520478
-0.495293
-0.516946
-0.520478
-0.499813
-0.474627
-0.495293
-0.499813
-0.480135
-0.45495
-0.474627
-0.480135
-0.461445
-0.43626
-0.45495
-0.461445
-0.443743
-0.418558
-0.43626
-0.443743
-0.427028
-0.401843
-0.418558
-0.427028
-0.411301
-0.386116
-0.401843
-0.411301
-0.396562
-0.371377
-0.386116
-0.396562
-0.38281
-0.357625
-0.371377
-0.38281
-0.370046
-0.344861
-0.357625
-0.370046
-0.35827
-0.333085
-0.344861
-0.35827
-0.347481
-0.322296
-0.333085
-0.347481
-0.33768
-0.312495
-0.322296
-0.33768
-0.328867
-0.303682
-0.312495
-0.328867
-0.321041
-0.295856
-0.303682
-0.321041
-0.314203
-0.289018
-0.295856
-0.314203
-0.308353
-0.283168
-0.289018
-0.308353
-0.30349
-0.278305
-0.283168
-0.30349
-0.299615
-0.27443
-0.278305
-0.299615
-0.296728
-0.271542
-0.27443
-0.296728
-0.294828
-0.269643
-0.271542
-0.294828
-0.293916
-0.268731
-0.269643
-0.293916
-0.293991
-0.268806
-0.268731
-0.293991
-0.295054
-0.269869
-0.268806
-0.295054
-0.297105
-0.27192
-0.269869
-0.297105
-0.300144
-0.274959
-0.27192
-0.300144
-0.30417
-0.278985
-0.274959
-0.30417
-0.309184
-0.283999
-0.278985
-0.309184
-0.315185
-0.29
-0.283999
-0.315185
-0.322174
-0.296989
-0.29
-0.322174
-0.330151
-0.304966
-0.296989
-0.330151
-0.339115
-0.31393
-0.304966
-0.339115
-0.349068
-0.323882
-0.31393
-0.349068
-0.360007
-0.334822
-0.323882
-0.360007
-0.371935
-0.346749
-0.334822
-0.371935
-0.38485
-0.359664
-0.346749
-0.38485
-0.398752
-0.373567
-0.359664
-0.398752
-0.413643
-0.388457
-0.373567
-0.413643
-0.429521
-0.404335
-0.388457
-0.429521
-0.446386
-0.421201
-0.404335
-0.446386
-0.46424
-0.439054
-0.421201
-0.46424
-0.483081
-0.457895
-0.439054
-0.483081
-0.502909
-0.477724
-0.457895
-0.502909
-0.523725
-0.49854
-0.477724
-0.523725
-0.545529
-0.520344
-0.49854
-0.545529
-0.568321
-0.543136
-0.520344
-0.568321
-0.5921
-0.566915
-0.543136
-0.5921
-0.616867
-0.591682
-0.566915
-0.616867
-0.642622
-0.617436
-0.591682
-0.642622
-0.669364
-0.644179
-0.617436
-0.669364
-0.697094
-0.671908
-0.644179
-0.697094
-0.725811
-0.700626
-0.671908
-0.725811
-0.755516
-0.730331
-0.700626
-0.755516
-0.786209
-0.761024
-0.730331
-0.786209
-0.81789
-0.792704
-0.761024
-0.81789
-0.850558
-0.825372
-0.792704
-0.850558
-0.884213
-0.859028
-0.825372
-0.884213
-0.918857
-0.893672
-0.859028
-0.918857
-0.954488
-0.929303
-0.893672
-0.954488
-0.991107
-0.965921
-0.929303
-0.991107
-1.02871
-1.00353
-0.965921
-1.02871
-1.06731
-1.04212
-1.00353
-1.06731
-1.10689
-1.0817
-1.04212
-1.10689
-1.14746
-1.12227
-1.0817
-1.14746
-1.18902
-1.16383
-1.12227
-1.18902
-1.23156
-1.20637
-1.16383
-1.23156
-1.27509
-1.24991
-1.20637
-1.27509
-1.31961
-1.29443
-1.24991
-1.31961
-1.36512
-1.33993
-1.29443
-1.36512
-1.41162
-1.38643
-1.33993
-1.41162
-1.4591
-1.43391
-1.38643
-1.4591
-1.50757
-1.48238
-1.43391
-1.50757
-1.55703
-1.53184
-1.48238
-1.55703
-1.60747
-1.58229
-1.53184
-1.60747
-1.65891
-1.63372
-1.58229
-1.65891
-1.71133
-1.68614
-1.63372
-1.71133
-1.76474
-1.73955
-1.68614
-1.76474
-1.81913
-1.79395
-1.73955
-1.81913
-1.87452
-1.84933
-1.79395
-1.87452
-1.93089
-1.9057
-1.84933
-1.93089
-1.98825
-1.96306
-1.9057
-1.98825
-2.0466
-2.02141
-1.96306
-2.0466
-2.10593
-2.08074
-2.02141
-2.10593
-2.16625
-2.14107
-2.08074
-2.16625
-2.22756
-2.20238
-2.14107
-2.22756
-2.28986
-2.26468
-2.20238
-2.28986
-2.35315
-2.32796
-2.26468
-2.35315
-2.41742
-2.39223
-2.32796
-2.41742
-2.48268
-2.45749
-2.39223
-2.48268
-2.54893
-2.52374
-2.45749
-2.51355
-2.44745
-2.42325
-2.48935
-2.44745
-2.38234
-2.35814
-2.42325
-2.38234
-2.31822
-2.29402
-2.35814
-2.31822
-2.25508
-2.23089
-2.29402
-2.25508
-2.19294
-2.16874
-2.23089
-2.19294
-2.13178
-2.10758
-2.16874
-2.13178
-2.07161
-2.04741
-2.10758
-2.07161
-2.01242
-1.98823
-2.04741
-2.01242
-1.95423
-1.93003
-1.98823
-1.95423
-1.89702
-1.87282
-1.93003
-1.89702
-1.8408
-1.8166
-1.87282
-1.8408
-1.78556
-1.76137
-1.8166
-1.78556
-1.73132
-1.70712
-1.76137
-1.73132
-1.67806
-1.65386
-1.70712
-1.67806
-1.62579
-1.60159
-1.65386
-1.62579
-1.57451
-1.55031
-1.60159
-1.57451
-1.52421
-1.50002
-1.55031
-1.52421
-1.47491
-1.45071
-1.50002
-1.47491
-1.42659
-1.40239
-1.45071
-1.42659
-1.37925
-1.35506
-1.40239
-1.37925
-1.33291
-1.30871
-1.35506
-1.33291
-1.28755
-1.26336
-1.30871
-1.28755
-1.24319
-1.21899
-1.26336
-1.24319
-1.1998
-1.17561
-1.21899
-1.1998
-1.15741
-1.13321
-1.17561
-1.15741
-1.116
-1.09181
-1.13321
-1.116
-1.07559
-1.05139
-1.09181
-1.07559
-1.03616
-1.01196
-1.05139
-1.03616
-0.997712
-0.973515
-1.01196
-0.997712
-0.960257
-0.93606
-0.973515
-0.960257
-0.923789
-0.899592
-0.93606
-0.923789
-0.888309
-0.864112
-0.899592
-0.888309
-0.853817
-0.829619
-0.864112
-0.853817
-0.820312
-0.796115
-0.829619
-0.820312
-0.787795
-0.763598
-0.796115
-0.787795
-0.756266
-0.732068
-0.763598
-0.756266
-0.725724
-0.701527
-0.732068
-0.725724
-0.69617
-0.671972
-0.701527
-0.69617
-0.667604
-0.643406
-0.671972
-0.667604
-0.640025
-0.615827
-0.643406
-0.640025
-0.613434
-0.589236
-0.615827
-0.613434
-0.58783
-0.563633
-0.589236
-0.58783
-0.563214
-0.539017
-0.563633
-0.563214
-0.539586
-0.515389
-0.539017
-0.539586
-0.516946
-0.492748
-0.515389
-0.516946
-0.495293
-0.471095
-0.492748
-0.495293
-0.474627
-0.45043
-0.471095
-0.474627
-0.45495
-0.430752
-0.45043
-0.45495
-0.43626
-0.412062
-0.430752
-0.43626
-0.418558
-0.39436
-0.412062
-0.418558
-0.401843
-0.377646
-0.39436
-0.401843
-0.386116
-0.361919
-0.377646
-0.386116
-0.371377
-0.347179
-0.361919
-0.371377
-0.357625
-0.333428
-0.347179
-0.357625
-0.344861
-0.320664
-0.333428
-0.344861
-0.333085
-0.308887
-0.320664
-0.333085
-0.322296
-0.298099
-0.308887
-0.322296
-0.312495
-0.288298
-0.298099
-0.312495
-0.303682
-0.279484
-0.288298
-0.303682
-0.295856
-0.271659
-0.279484
-0.295856
-0.289018
-0.264821
-0.271659
-0.289018
-0.283168
-0.25897
-0.264821
-0.283168
-0.278305
-0.254107
-0.25897
-0.278305
-0.27443
-0.250232
-0.254107
-0.27443
-0.271542
-0.247345
-0.250232
-0.271542
-0.269643
-0.245445
-0.247345
-0.269643
-0.268731
-0.244533
-0.245445
-0.268731
-0.268806
-0.244609
-0.244533
-0.268806
-0.269869
-0.245672
-0.244609
-0.269869
-0.27192
-0.247723
-0.245672
-0.27192
-0.274959
-0.250761
-0.247723
-0.274959
-0.278985
-0.254787
-0.250761
-0.278985
-0.283999
-0.259801
-0.254787
-0.283999
-0.29
-0.265802
-0.259801
-0.29
-0.296989
-0.272792
-0.265802
-0.296989
-0.304966
-0.280768
-0.272792
-0.304966
-0.31393
-0.289733
-0.280768
-0.31393
-0.323882
-0.299685
-0.289733
-0.323882
-0.334822
-0.310625
-0.299685
-0.334822
-0.346749
-0.322552
-0.310625
-0.346749
-0.359664
-0.335467
-0.322552
-0.359664
-0.373567
-0.34937
-0.335467
-0.373567
-0.388457
-0.36426
-0.34937
-0.388457
-0.404335
-0.380138
-0.36426
-0.404335
-0.421201
-0.397004
-0.380138
-0.421201
-0.439054
-0.414857
-0.397004
-0.439054
-0.457895
-0.433698
-0.414857
-0.457895
-0.477724
-0.453526
-0.433698
-0.477724
-0.49854
-0.474343
-0.453526
-0.49854
-0.520344
-0.496147
-0.474343
-0.520344
-0.543136
-0.518938
-0.496147
-0.543136
-0.566915
-0.542717
-0.518938
-0.566915
-0.591682
-0.567484
-0.542717
-0.591682
-0.617436
-0.593239
-0.567484
-0.617436
-0.644179
-0.619981
-0.593239
-0.644179
-0.671908
-0.647711
-0.619981
-0.671908
-0.700626
-0.676428
-0.647711
-0.700626
-0.730331
-0.706134
-0.676428
-0.730331
-0.761024
-0.736826
-0.706134
-0.761024
-0.792704
-0.768507
-0.736826
-0.792704
-0.825372
-0.801175
-0.768507
-0.825372
-0.859028
-0.834831
-0.801175
-0.859028
-0.893672
-0.869474
-0.834831
-0.893672
-0.929303
-0.905105
-0.869474
-0.929303
-0.965921
-0.941724
-0.905105
-0.965921
-1.00353
-0.97933
-0.941724
-1.00353
-1.04212
-1.01792
-0.97933
-1.04212
-1.0817
-1.05751
-1.01792
-1.0817
-1.12227
-1.09808
-1.05751
-1.12227
-1.16383
-1.13963
-1.09808
-1.16383
-1.20637
-1.18218
-1.13963
-1.20637
-1.24991
-1.22571
-1.18218
-1.24991
-1.29443
-1.27023
-1.22571
-1.29443
-1.33993
-1.31574
-1.27023
-1.33993
-1.38643
-1.36223
-1.31574
-1.38643
-1.43391
-1.40972
-1.36223
-1.43391
-1.48238
-1.45819
-1.40972
-1.48238
-1.53184
-1.50764
-1.45819
-1.53184
-1.58229
-1.55809
-1.50764
-1.58229
-1.63372
-1.60952
-1.55809
-1.63372
-1.68614
-1.66194
-1.60952
-1.68614
-1.73955
-1.71535
-1.66194
-1.73955
-1.79395
-1.76975
-1.71535
-1.79395
-1.84933
-1.82513
-1.76975
-1.84933
-1.9057
-1.88151
-1.82513
-1.9057
-1.96306
-1.93887
-1.88151
-1.96306
-2.02141
-1.99721
-1.93887
-2.02141
-2.08074
-2.05655
-1.99721
-2.08074
-2.14107
-2.11687
-2.05655
-2.14107
-2.20238
-2.17818
-2.11687
-2.20238
-2.26468
-2.24048
-2.17818
-2.26468
-2.32796
-2.30376
-2.24048
-2.32796
-2.39223
-2.36804
-2.30376
-2.39223
-2.45749
-2.4333
-2.36804
-2.45749
-2.52374
-2.49955
-2.4333
-2.48935
-2.42325
-2.40004
-2.46614
-2.42325
-2.35814
-2.33493
-2.40004
-2.35814
-2.29402
-2.27081
-2.33493
-2.29402
-2.23089
-2.20768
-2.27081
-2.23089
-2.16874
-2.14553
-2.20768
-2.16874
-2.10758
-2.08437
-2.14553
-2.10758
-2.04741
-2.0242
-2.08437
-2.04741
-1.98823
-1.96502
-2.0242
-1.98823
-1.93003
-1.90682
-1.96502
-1.93003
-1.87282
-1.84961
-1.90682
-1.87282
-1.8166
-1.79339
-1.84961
-1.8166
-1.76137
-1.73816
-1.79339
-1.76137
-1.70712
-1.68391
-1.73816
-1.70712
-1.65386
-1.63065
-1.68391
-1.65386
-1.60159
-1.57838
-1.63065
-1.60159
-1.55031
-1.5271
-1.57838
-1.55031
-1.50002
-1.47681
-1.5271
-1.50002
-1.45071
-1.4275
-1.47681
-1.45071
-1.40239
-1.37918
-1.4275
-1.40239
-1.35506
-1.33185
-1.37918
-1.35506
-1.30871
-1.2855
-1.33185
-1.30871
-1.26336
-1.24015
-1.2855
-1.26336
-1.21899
-1.19578
-1.24015
-1.21899
-1.17561
-1.1524
-1.19578
-1.17561
-1.13321
-1.11
-1.1524
-1.13321
-1.09181
-1.0686
-1.11
-1.09181
-1.05139
-1.02818
-1.0686
-1.05139
-1.01196
-0.988748
-1.02818
-1.01196
-0.973515
-0.950305
-0.988748
-0.973515
-0.93606
-0.91285
-0.950305
-0.93606
-0.899592
-0.876382
-0.91285
-0.899592
-0.864112
-0.840902
-0.876382
-0.864112
-0.829619
-0.80641
-0.840902
-0.829619
-0.796115
-0.772905
-0.80641
-0.796115
-0.763598
-0.740388
-0.772905
-0.763598
-0.732068
-0.708858
-0.740388
-0.732068
-0.701527
-0.678317
-0.708858
-0.701527
-0.671972
-0.648763
-0.678317
-0.671972
-0.643406
-0.620196
-0.648763
-0.643406
-0.615827
-0.592617
-0.620196
-0.615827
-0.589236
-0.566026
-0.592617
-0.589236
-0.563633
-0.540423
-0.566026
-0.563633
-0.539017
-0.515807
-0.540423
-0.539017
-0.515389
-0.492179
-0.515807
-0.515389
-0.492748
-0.469538
-0.492179
-0.492748
-0.471095
-0.447885
-0.469538
-0.471095
-0.45043
-0.42722
-0.447885
-0.45043
-0.430752
-0.407542
-0.42722
-0.430752
-0.412062
-0.388853
-0.407542
-0.412062
-0.39436
-0.37115
-0.388853
-0.39436
-0.377646
-0.354436
-0.37115
-0.377646
-0.361919
-0.338709
-0.354436
-0.361919
-0.347179
-0.32397
-0.338709
-0.347179
-0.333428
-0.310218
-0.32397
-0.333428
-0.320664
-0.297454
-0.310218
-0.320664
-0.308887
-0.285678
-0.297454
-0.308887
-0.298099
-0.274889
-0.285678
-0.298099
-0.288298
-0.265088
-0.274889
-0.288298
-0.279484
-0.256275
-0.265088
-0.279484
-0.271659
-0.248449
-0.256275
-0.271659
-0.264821
-0.241611
-0.248449
-0.264821
-0.25897
-0.23576
-0.241611
-0.25897
-0.254107
-0.230898
-0.23576
-0.254107
-0.250232
-0.227023
-0.230898
-0.250232
-0.247345
-0.224135
-0.227023
-0.247345
-0.245445
-0.222235
-0.224135
-0.245445
-0.244533
-0.221323
-0.222235
-0.244533
-0.244609
-0.221399
-0.221323
-0.244609
-0.245672
-0.222462
-0.221399
-0.245672
-0.247723
-0.224513
-0.222462
-0.247723
-0.250761
-0.227551
-0.224513
-0.250761
-0.254787
-0.231577
-0.227551
-0.254787
-0.259801
-0.236591
-0.231577
-0.259801
-0.265802
-0.242593
-0.236591
-0.265802
-0.272792
-0.249582
-0.242593
-0.272792
-0.280768
-0.257558
-0.249582
-0.280768
-0.289733
-0.266523
-0.257558
-0.289733
-0.299685
-0.276475
-0.266523
-0.299685
-0.310625
-0.287415
-0.276475
-0.310625
-0.322552
-0.299342
-0.287415
-0.322552
-0.335467
-0.312257
-0.299342
-0.335467
-0.34937
-0.32616
-0.312257
-0.34937
-0.36426
-0.34105
-0.32616
-0.36426
-0.380138
-0.356928
-0.34105
-0.380138
-0.397004
-0.373794
-0.356928
-0.397004
-0.414857
-0.391647
-0.373794
-0.414857
-0.433698
-0.410488
-0.391647
-0.433698
-0.453526
-0.430317
-0.410488
-0.453526
-0.474343
-0.451133
-0.430317
-0.474343
-0.496147
-0.472937
-0.451133
-0.496147
-0.518938
-0.495728
-0.472937
-0.518938
-0.542717
-0.519508
-0.495728
-0.542717
-0.567484
-0.544274
-0.519508
-0.567484
-0.593239
-0.570029
-0.544274
-0.593239
-0.619981
-0.596771
-0.570029
-0.619981
-0.647711
-0.624501
-0.596771
-0.647711
-0.676428
-0.653219
-0.624501
-0.676428
-0.706134
-0.682924
-0.653219
-0.706134
-0.736826
-0.713616
-0.682924
-0.736826
-0.768507
-0.745297
-0.713616
-0.768507
-0.801175
-0.777965
-0.745297
-0.801175
-0.834831
-0.811621
-0.777965
-0.834831
-0.869474
-0.846264
-0.811621
-0.869474
-0.905105
-0.881895
-0.846264
-0.905105
-0.941724
-0.918514
-0.881895
-0.941724
-0.97933
-0.95612
-0.918514
-0.97933
-1.01792
-0.994715
-0.95612
-1.01792
-1.05751
-1.0343
-0.994715
-1.05751
-1.09808
-1.07487
-1.0343
-1.09808
-1.13963
-1.11642
-1.07487
-1.13963
-1.18218
-1.15897
-1.11642
-1.18218
-1.22571
-1.2025
-1.15897
-1.22571
-1.27023
-1.24702
-1.2025
-1.27023
-1.31574
-1.29253
-1.24702
-1.31574
-1.36223
-1.33902
-1.29253
-1.36223
-1.40972
-1.38651
-1.33902
-1.40972
-1.45819
-1.43498
-1.38651
-1.45819
-1.50764
-1.48443
-1.43498
-1.50764
-1.55809
-1.53488
-1.48443
-1.55809
-1.60952
-1.58631
-1.53488
-1.60952
-1.66194
-1.63873
-1.58631
-1.66194
-1.71535