# vtk DataFile Version 1.0
unstructured Grid
ASCII
DATASET UNSTRUCTURED_GRID
POINTS 23424 float 
0 0	 0.0
0.0222222 0	 0.0
0.0222222 0.0222222	 0.0
0 0.0222222	 0.0
0.0222222 0	 0.0
0.0444444 0	 0.0
0.0444444 0.0222222	 0.0
0.0222222 0.0222222	 0.0
0.0444444 0	 0.0
0.0666667 0	 0.0
0.0666667 0.0222222	 0.0
0.0444444 0.0222222	 0.0
0.0666667 0	 0.0
0.0888889 0	 0.0
0.0888889 0.0222222	 0.0
0.0666667 0.0222222	 0.0
0.0888889 0	 0.0
0.111111 0	 0.0
0.111111 0.0222222	 0.0
0.0888889 0.0222222	 0.0
0.111111 0	 0.0
0.133333 0	 0.0
0.133333 0.0222222	 0.0
0.111111 0.0222222	 0.0
0.133333 0	 0.0
0.155556 0	 0.0
0.155556 0.0222222	 0.0
0.133333 0.0222222	 0.0
0.155556 0	 0.0
0.177778 0	 0.0
0.177778 0.0222222	 0.0
0.155556 0.0222222	 0.0
0.177778 0	 0.0
0.2 0	 0.0
0.2 0.0222222	 0.0
0.177778 0.0222222	 0.0
0.2 0	 0.0
0.222222 0	 0.0
0.222222 0.0222222	 0.0
0.2 0.0222222	 0.0
0.222222 0	 0.0
0.244444 0	 0.0
0.244444 0.0222222	 0.0
0.222222 0.0222222	 0.0
0.244444 0	 0.0
0.266667 0	 0.0
0.266667 0.0222222	 0.0
0.244444 0.0222222	 0.0
0.266667 0	 0.0
0.288889 0	 0.0
0.288889 0.0222222	 0.0
0.266667 0.0222222	 0.0
0.288889 0	 0.0
0.311111 0	 0.0
0.311111 0.0222222	 0.0
0.288889 0.0222222	 0.0
0.311111 0	 0.0
0.333333 0	 0.0
0.333333 0.0222222	 0.0
0.311111 0.0222222	 0.0
0.333333 0	 0.0
0.355556 0	 0.0
0.355556 0.0222222	 0.0
0.333333 0.0222222	 0.0
0.355556 0	 0.0
0.377778 0	 0.0
0.377778 0.0222222	 0.0
0.355556 0.0222222	 0.0
0.377778 0	 0.0
0.4 0	 0.0
0.4 0.0222222	 0.0
0.377778 0.0222222	 0.0
0.4 0	 0.0
0.422222 0	 0.0
0.422222 0.0222222	 0.0
0.4 0.0222222	 0.0
0.422222 0	 0.0
0.444444 0	 0.0
0.444444 0.0222222	 0.0
0.422222 0.0222222	 0.0
0.444444 0	 0.0
0.466667 0	 0.0
0.466667 0.0222222	 0.0
0.444444 0.0222222	 0.0
0.466667 0	 0.0
0.488889 0	 0.0
0.488889 0.0222222	 0.0
0.466667 0.0222222	 0.0
0.488889 0	 0.0
0.511111 0	 0.0
0.511111 0.0222222	 0.0
0.488889 0.0222222	 0.0
0.511111 0	 0.0
0.533333 0	 0.0
0.533333 0.0222222	 0.0
0.511111 0.0222222	 0.0
0.533333 0	 0.0
0.555556 0	 0.0
0.555556 0.0222222	 0.0
0.533333 0.0222222	 0.0
0.555556 0	 0.0
0.577778 0	 0.0
0.577778 0.0222222	 0.0
0.555556 0.0222222	 0.0
0.577778 0	 0.0
0.6 0	 0.0
0.6 0.0222222	 0.0
0.577778 0.0222222	 0.0
0.6 0	 0.0
0.622222 0	 0.0
0.622222 0.0222222	 0.0
0.6 0.0222222	 0.0
0.622222 0	 0.0
0.644444 0	 0.0
0.644444 0.0222222	 0.0
0.622222 0.0222222	 0.0
0.644444 0	 0.0
0.666667 0	 0.0
0.666667 0.0222222	 0.0
0.644444 0.0222222	 0.0
0.666667 0	 0.0
0.688889 0	 0.0
0.688889 0.0222222	 0.0
0.666667 0.0222222	 0.0
0.688889 0	 0.0
0.711111 0	 0.0
0.711111 0.0222222	 0.0
0.688889 0.0222222	 0.0
0.711111 0	 0.0
0.733333 0	 0.0
0.733333 0.0222222	 0.0
0.711111 0.0222222	 0.0
0.733333 0	 0.0
0.755556 0	 0.0
0.755556 0.0222222	 0.0
0.733333 0.0222222	 0.0
0.755556 0	 0.0
0.777778 0	 0.0
0.777778 0.0222222	 0.0
0.755556 0.0222222	 0.0
0.777778 0	 0.0
0.8 0	 0.0
0.8 0.0222222	 0.0
0.777778 0.0222222	 0.0
0.8 0	 0.0
0.822222 0	 0.0
0.822222 0.0222222	 0.0
0.8 0.0222222	 0.0
0.822222 0	 0.0
0.844444 0	 0.0
0.844444 0.0222222	 0.0
0.822222 0.0222222	 0.0
0.844444 0	 0.0
0.866667 0	 0.0
0.866667 0.0222222	 0.0
0.844444 0.0222222	 0.0
0.866667 0	 0.0
0.888889 0	 0.0
0.888889 0.0222222	 0.0
0.866667 0.0222222	 0.0
0.888889 0	 0.0
0.911111 0	 0.0
0.911111 0.0222222	 0.0
0.888889 0.0222222	 0.0
0.911111 0	 0.0
0.933333 0	 0.0
0.933333 0.0222222	 0.0
0.911111 0.0222222	 0.0
0.933333 0	 0.0
0.955556 0	 0.0
0.955556 0.0222222	 0.0
0.933333 0.0222222	 0.0
0.955556 0	 0.0
0.977778 0	 0.0
0.977778 0.0222222	 0.0
0.955556 0.0222222	 0.0
0.977778 0	 0.0
1 0	 0.0
1 0.0222222	 0.0
0.977778 0.0222222	 0.0
1 0	 0.0
1.02222 0	 0.0
1.02222 0.0222222	 0.0
1 0.0222222	 0.0
1.02222 0	 0.0
1.04444 0	 0.0
1.04444 0.0222222	 0.0
1.02222 0.0222222	 0.0
1.04444 0	 0.0
1.06667 0	 0.0
1.06667 0.0222222	 0.0
1.04444 0.0222222	 0.0
1.06667 0	 0.0
1.08889 0	 0.0
1.08889 0.0222222	 0.0
1.06667 0.0222222	 0.0
1.08889 0	 0.0
1.11111 0	 0.0
1.11111 0.0222222	 0.0
1.08889 0.0222222	 0.0
1.11111 0	 0.0
1.13333 0	 0.0
1.13333 0.0222222	 0.0
1.11111 0.0222222	 0.0
1.13333 0	 0.0
1.15556 0	 0.0
1.15556 0.0222222	 0.0
1.13333 0.0222222	 0.0
1.15556 0	 0.0
1.17778 0	 0.0
1.17778 0.0222222	 0.0
1.15556 0.0222222	 0.0
1.17778 0	 0.0
1.2 0	 0.0
1.2 0.0222222	 0.0
1.17778 0.0222222	 0.0
1.2 0	 0.0
1.22222 0	 0.0
1.22222 0.0222222	 0.0
1.2 0.0222222	 0.0
1.22222 0	 0.0
1.24444 0	 0.0
1.24444 0.0222222	 0.0
1.22222 0.0222222	 0.0
1.24444 0	 0.0
1.26667 0	 0.0
1.26667 0.0222222	 0.0
1.24444 0.0222222	 0.0
1.26667 0	 0.0
1.28889 0	 0.0
1.28889 0.0222222	 0.0
1.26667 0.0222222	 0.0
1.28889 0	 0.0
1.31111 0	 0.0
1.31111 0.0222222	 0.0
1.28889 0.0222222	 0.0
1.31111 0	 0.0
1.33333 0	 0.0
1.33333 0.0222222	 0.0
1.31111 0.0222222	 0.0
1.33333 0	 0.0
1.35556 0	 0.0
1.35556 0.0222222	 0.0
1.33333 0.0222222	 0.0
1.35556 0	 0.0
1.37778 0	 0.0
1.37778 0.0222222	 0.0
1.35556 0.0222222	 0.0
1.37778 0	 0.0
1.4 0	 0.0
1.4 0.0222222	 0.0
1.37778 0.0222222	 0.0
1.4 0	 0.0
1.42222 0	 0.0
1.42222 0.0222222	 0.0
1.4 0.0222222	 0.0
1.42222 0	 0.0
1.44444 0	 0.0
1.44444 0.0222222	 0.0
1.42222 0.0222222	 0.0
1.44444 0	 0.0
1.46667 0	 0.0
1.46667 0.0222222	 0.0
1.44444 0.0222222	 0.0
1.46667 0	 0.0
1.48889 0	 0.0
1.48889 0.0222222	 0.0
1.46667 0.0222222	 0.0
1.48889 0	 0.0
1.51111 0	 0.0
1.51111 0.0222222	 0.0
1.48889 0.0222222	 0.0
1.51111 0	 0.0
1.53333 0	 0.0
1.53333 0.0222222	 0.0
1.51111 0.0222222	 0.0
1.53333 0	 0.0
1.55556 0	 0.0
1.55556 0.0222222	 0.0
1.53333 0.0222222	 0.0
1.55556 0	 0.0
1.57778 0	 0.0
1.57778 0.0222222	 0.0
1.55556 0.0222222	 0.0
1.57778 0	 0.0
1.6 0	 0.0
1.6 0.0222222	 0.0
1.57778 0.0222222	 0.0
1.6 0	 0.0
1.62222 0	 0.0
1.62222 0.0222222	 0.0
1.6 0.0222222	 0.0
1.62222 0	 0.0
1.64444 0	 0.0
1.64444 0.0222222	 0.0
1.62222 0.0222222	 0.0
1.64444 0	 0.0
1.66667 0	 0.0
1.66667 0.0222222	 0.0
1.64444 0.0222222	 0.0
1.66667 0	 0.0
1.68889 0	 0.0
1.68889 0.0222222	 0.0
1.66667 0.0222222	 0.0
1.68889 0	 0.0
1.71111 0	 0.0
1.71111 0.0222222	 0.0
1.68889 0.0222222	 0.0
1.71111 0	 0.0
1.73333 0	 0.0
1.73333 0.0222222	 0.0
1.71111 0.0222222	 0.0
1.73333 0	 0.0
1.75556 0	 0.0
1.75556 0.0222222	 0.0
1.73333 0.0222222	 0.0
1.75556 0	 0.0
1.77778 0	 0.0
1.77778 0.0222222	 0.0
1.75556 0.0222222	 0.0
1.77778 0	 0.0
1.8 0	 0.0
1.8 0.0222222	 0.0
1.77778 0.0222222	 0.0
1.8 0	 0.0
1.82222 0	 0.0
1.82222 0.0222222	 0.0
1.8 0.0222222	 0.0
1.82222 0	 0.0
1.84444 0	 0.0
1.84444 0.0222222	 0.0
1.82222 0.0222222	 0.0
1.84444 0	 0.0
1.86667 0	 0.0
1.86667 0.0222222	 0.0
1.84444 0.0222222	 0.0
1.86667 0	 0.0
1.88889 0	 0.0
1.88889 0.0222222	 0.0
1.86667 0.0222222	 0.0
1.88889 0	 0.0
1.91111 0	 0.0
1.91111 0.0222222	 0.0
1.88889 0.0222222	 0.0
1.91111 0	 0.0
1.93333 0	 0.0
1.93333 0.0222222	 0.0
1.91111 0.0222222	 0.0
1.93333 0	 0.0
1.95556 0	 0.0
1.95556 0.0222222	 0.0
1.93333 0.0222222	 0.0
1.95556 0	 0.0
1.97778 0	 0.0
1.97778 0.0222222	 0.0
1.95556 0.0222222	 0.0
1.97778 0	 0.0
2 0	 0.0
2 0.0222222	 0.0
1.97778 0.0222222	 0.0
2 0	 0.0
2.02222 0	 0.0
2.02222 0.0222222	 0.0
2 0.0222222	 0.0
2.02222 0	 0.0
2.04444 0	 0.0
2.04444 0.0222222	 0.0
2.02222 0.0222222	 0.0
2.04444 0	 0.0
2.06667 0	 0.0
2.06667 0.0222222	 0.0
2.04444 0.0222222	 0.0
2.06667 0	 0.0
2.08889 0	 0.0
2.08889 0.0222222	 0.0
2.06667 0.0222222	 0.0
2.08889 0	 0.0
2.11111 0	 0.0
2.11111 0.0222222	 0.0
2.08889 0.0222222	 0.0
2.11111 0	 0.0
2.13333 0	 0.0
2.13333 0.0222222	 0.0
2.11111 0.0222222	 0.0
2.13333 0	 0.0
2.15556 0	 0.0
2.15556 0.0222222	 0.0
2.13333 0.0222222	 0.0
2.15556 0	 0.0
2.17778 0	 0.0
2.17778 0.0222222	 0.0
2.15556 0.0222222	 0.0
2.17778 0	 0.0
2.2 0	 0.0
2.2 0.0222222	 0.0
2.17778 0.0222222	 0.0
2.2 0	 0.0
2.22222 0	 0.0
2.22222 0.0222222	 0.0
2.2 0.0222222	 0.0
2.22222 0	 0.0
2.24444 0	 0.0
2.24444 0.0222222	 0.0
2.22222 0.0222222	 0.0
2.24444 0	 0.0
2.26667 0	 0.0
2.26667 0.0222222	 0.0
2.24444 0.0222222	 0.0
2.26667 0	 0.0
2.28889 0	 0.0
2.28889 0.0222222	 0.0
2.26667 0.0222222	 0.0
2.28889 0	 0.0
2.31111 0	 0.0
2.31111 0.0222222	 0.0
2.28889 0.0222222	 0.0
2.31111 0	 0.0
2.33333 0	 0.0
2.33333 0.0222222	 0.0
2.31111 0.0222222	 0.0
2.33333 0	 0.0
2.35556 0	 0.0
2.35556 0.0222222	 0.0
2.33333 0.0222222	 0.0
2.35556 0	 0.0
2.37778 0	 0.0
2.37778 0.0222222	 0.0
2.35556 0.0222222	 0.0
2.37778 0	 0.0
2.4 0	 0.0
2.4 0.0222222	 0.0
2.37778 0.0222222	 0.0
2.4 0	 0.0
2.42222 0	 0.0
2.42222 0.0222222	 0.0
2.4 0.0222222	 0.0
2.42222 0	 0.0
2.44444 0	 0.0
2.44444 0.0222222	 0.0
2.42222 0.0222222	 0.0
2.44444 0	 0.0
2.46667 0	 0.0
2.46667 0.0222222	 0.0
2.44444 0.0222222	 0.0
2.46667 0	 0.0
2.48889 0	 0.0
2.48889 0.0222222	 0.0
2.46667 0.0222222	 0.0
2.48889 0	 0.0
2.51111 0	 0.0
2.51111 0.0222222	 0.0
2.48889 0.0222222	 0.0
2.51111 0	 0.0
2.53333 0	 0.0
2.53333 0.0222222	 0.0
2.51111 0.0222222	 0.0
2.53333 0	 0.0
2.55556 0	 0.0
2.55556 0.0222222	 0.0
2.53333 0.0222222	 0.0
2.55556 0	 0.0
2.57778 0	 0.0
2.57778 0.0222222	 0.0
2.55556 0.0222222	 0.0
2.57778 0	 0.0
2.6 0	 0.0
2.6 0.0222222	 0.0
2.57778 0.0222222	 0.0
2.6 0	 0.0
2.62222 0	 0.0
2.62222 0.0222222	 0.0
2.6 0.0222222	 0.0
2.62222 0	 0.0
2.64444 0	 0.0
2.64444 0.0222222	 0.0
2.62222 0.0222222	 0.0
2.64444 0	 0.0
2.66667 0	 0.0
2.66667 0.0222222	 0.0
2.64444 0.0222222	 0.0
2.66667 0	 0.0
2.68889 0	 0.0
2.68889 0.0222222	 0.0
2.66667 0.0222222	 0.0
2.68889 0	 0.0
2.71111 0	 0.0
2.71111 0.0222222	 0.0
2.68889 0.0222222	 0.0
2.71111 0	 0.0
2.73333 0	 0.0
2.73333 0.0222222	 0.0
2.71111 0.0222222	 0.0
2.73333 0	 0.0
2.75556 0	 0.0
2.75556 0.0222222	 0.0
2.73333 0.0222222	 0.0
2.75556 0	 0.0
2.77778 0	 0.0
2.77778 0.0222222	 0.0
2.75556 0.0222222	 0.0
2.77778 0	 0.0
2.8 0	 0.0
2.8 0.0222222	 0.0
2.77778 0.0222222	 0.0
2.8 0	 0.0
2.82222 0	 0.0
2.82222 0.0222222	 0.0
2.8 0.0222222	 0.0
2.82222 0	 0.0
2.84444 0	 0.0
2.84444 0.0222222	 0.0
2.82222 0.0222222	 0.0
2.84444 0	 0.0
2.86667 0	 0.0
2.86667 0.0222222	 0.0
2.84444 0.0222222	 0.0
2.86667 0	 0.0
2.88889 0	 0.0
2.88889 0.0222222	 0.0
2.86667 0.0222222	 0.0
2.88889 0	 0.0
2.91111 0	 0.0
2.91111 0.0222222	 0.0
2.88889 0.0222222	 0.0
2.91111 0	 0.0
[...]
POINT_DATA 23424
SCALARS levelset_first float
LOOKUP_TABLE default
-1.82622
-1.77217
-1.74599
-1.80005
-1.77217
-1.7191
-1.69293
-1.74599
-1.7191
-1.66703
-1.64085
-1.69293
-1.66703
-1.61594
-1.58976
-1.64085
-1.61594
-1.56584
-1.53966
-1.58976
-1.56584
-1.51672
-1.49055
-1.53966
-1.51672
-1.4686
-1.44242
-1.49055
-1.4686
-1.42146
-1.39529
-1.44242
-1.42146
-1.37531
-1.34913
-1.39529
-1.37531
-1.33014
-1.30397
-1.34913
-1.33014
-1.28597
-1.2598
-1.30397
-1.28597
-1.24278
-1.21661
-1.2598
-1.24278
-1.20058
-1.17441
-1.21661
-1.20058
-1.15937
-1.1332
-1.17441
-1.15937
-1.11914
-1.09297
-1.1332
-1.11914
-1.07991
-1.05373
-1.09297
-1.07991
-1.04166
-1.01548
-1.05373
-1.04166
-1.00439
-0.978222
-1.01548
-1.00439
-0.96812
-0.941948
-0.978222
-0.96812
-0.932834
-0.906661
-0.941948
-0.932834
-0.898535
-0.872362
-0.906661
-0.898535
-0.865224
-0.839051
-0.872362
-0.865224
-0.8329
-0.806727
-0.839051
-0.8329
-0.801564
-0.775391
-0.806727
-0.801564
-0.771216
-0.745043
-0.775391
-0.771216
-0.741855
-0.715682
-0.745043
-0.741855
-0.713482
-0.687309
-0.715682
-0.713482
-0.686097
-0.659924
-0.687309
-0.686097
-0.659699
-0.633526
-0.659924
-0.659699
-0.634289
-0.608116
-0.633526
-0.634289
-0.609867
-0.583694
-0.608116
-0.609867
-0.586432
-0.560259
-0.583694
-0.586432
-0.563985
-0.537812
-0.560259
-0.563985
-0.542525
-0.516352
-0.537812
-0.542525
-0.522054
-0.495881
-0.516352
-0.522054
-0.502569
-0.476397
-0.495881
-0.502569
-0.484073
-0.4579
-0.476397
-0.484073
-0.466564
-0.440391
-0.4579
-0.466564
-0.450043
-0.42387
-0.440391
-0.450043
-0.43451
-0.408337
-0.42387
-0.43451
-0.419964
-0.393791
-0.408337
-0.419964
-0.406406
-0.380233
-0.393791
-0.406406
-0.393835
-0.367662
-0.380233
-0.393835
-0.382252
-0.356079
-0.367662
-0.382252
-0.371657
-0.345484
-0.356079
-0.371657
-0.362049
-0.335876
-0.345484
-0.362049
-0.353429
-0.327257
-0.335876
-0.353429
-0.345797
-0.319624
-0.327257
-0.345797
-0.339153
-0.31298
-0.319624
-0.339153
-0.333496
-0.307323
-0.31298
-0.333496
-0.328826
-0.302653
-0.307323
-0.328826
-0.325145
-0.298972
-0.302653
-0.325145
-0.322451
-0.296278
-0.298972
-0.322451
-0.320744
-0.294571
-0.296278
-0.320744
-0.320026
-0.293853
-0.294571
-0.320026
-0.320295
-0.294122
-0.293853
-0.320295
-0.321551
-0.295378
-0.294122
-0.321551
-0.323795
-0.297623
-0.295378
-0.323795
-0.327027
-0.300855
-0.297623
-0.327027
-0.331247
-0.305074
-0.300855
-0.331247
-0.336454
-0.310281
-0.305074
-0.336454
-0.342649
-0.316476
-0.310281
-0.342649
-0.349832
-0.323659
-0.316476
-0.349832
-0.358002
-0.331829
-0.323659
-0.358002
-0.36716
-0.340987
-0.331829
-0.36716
-0.377305
-0.351132
-0.340987
-0.377305
-0.388438
-0.362266
-0.351132
-0.388438
-0.400559
-0.374386
-0.362266
-0.400559
-0.413668
-0.387495
-0.374386
-0.413668
-0.427764
-0.401591
-0.387495
-0.427764
-0.442848
-0.416675
-0.401591
-0.442848
-0.458919
-0.432746
-0.416675
-0.458919
-0.475978
-0.449805
-0.432746
-0.475978
-0.494025
-0.467852
-0.449805
-0.494025
-0.513059
-0.486887
-0.467852
-0.513059
-0.533081
-0.506909
-0.486887
-0.533081
-0.554091
-0.527918
-0.506909
-0.554091
-0.576088
-0.549916
-0.527918
-0.576088
-0.599074
-0.572901
-0.549916
-0.599074
-0.623046
-0.596873
-0.572901
-0.623046
-0.648007
-0.621834
-0.596873
-0.648007
-0.673955
-0.647782
-0.621834
-0.673955
-0.70089
-0.674717
-0.647782
-0.70089
-0.728813
-0.702641
-0.674717
-0.728813
-0.757724
-0.731552
-0.702641
-0.757724
-0.787623
-0.76145
-0.731552
-0.787623
-0.818509
-0.792336
-0.76145
-0.818509
-0.850383
-0.82421
-0.792336
-0.850383
-0.883245
-0.857072
-0.82421
-0.883245
-0.917094
-0.890921
-0.857072
-0.917094
-0.951931
-0.925758
-0.890921
-0.951931
-0.987755
-0.961582
-0.925758
-0.987755
-1.02457
-0.998395
-0.961582
-1.02457
-1.06237
-1.03619
-0.998395
-1.06237
-1.10115
-1.07498
-1.03619
-1.10115
-1.14093
-1.11476
-1.07498
-1.14093
-1.18169
-1.15552
-1.11476
-1.18169
-1.22344
-1.19727
-1.15552
-1.22344
-1.26618
-1.24001
-1.19727
-1.26618
-1.30991
-1.28373
-1.24001
-1.30991
-1.35462
-1.32845
-1.28373
-1.35462
-1.40032
-1.37415
-1.32845
-1.40032
-1.44701
-1.42084
-1.37415
-1.44701
-1.49469
-1.46851
-1.42084
-1.49469
-1.54335
-1.51718
-1.46851
-1.54335
-1.593
-1.56683
-1.51718
-1.593
-1.64364
-1.61747
-1.56683
-1.64364
-1.69527
-1.6691
-1.61747
-1.69527
-1.74788
-1.72171
-1.6691
-1.74788
-1.80149
-1.77531
-1.72171
-1.80149
-1.85608
-1.8299
-1.77531
-1.85608
-1.91165
-1.88548
-1.8299
-1.91165
-1.96822
-1.94205
-1.88548
-1.96822
-2.02577
-1.9996
-1.94205
-2.02577
-2.08431
-2.05814
-1.9996
-2.08431
-2.14384
-2.11767
-2.05814
-2.14384
-2.20436
-2.17818
-2.11767
-2.20436
-2.26586
-2.23969
-2.17818
-2.26586
-2.32835
-2.30218
-2.23969
-2.32835
-2.39183
-2.36566
-2.30218
-2.39183
-2.4563
-2.43012
-2.36566
-2.4563
-2.52175
-2.49558
-2.43012
-2.52175
-2.58819
-2.56202
-2.49558
-2.58819
-2.65562
-2.62945
-2.56202
-2.65562
-2.72404
-2.69787
-2.62945
-2.72404
-2.79344
-2.76727
-2.69787
-2.79344
-2.86384
-2.83766
-2.76727
-2.86384
-2.93522
-2.90904
-2.83766
-2.93522
-3.00758
-2.98141
-2.90904
-3.00758
-3.08094
-3.05477
-2.98141
-3.08094
-3.15528
-3.12911
-3.05477
-3.15528
-3.23061
-3.20444
-3.12911
-3.23061
-3.30693
-3.28076
-3.20444
-3.30693
-3.38424
-3.35806
-3.28076
-3.38424
-3.46253
-3.43636
-3.35806
-1.80005
-1.74599
-1.72081
-1.77486
-1.74599
-1.69293
-1.66775
-1.72081
-1.69293
-1.64085
-1.61567
-1.66775
-1.64085
-1.58976
-1.56458
-1.61567
-1.58976
-1.53966
-1.51448
-1.56458
-1.53966
-1.49055
-1.46536
-1.51448
-1.49055
-1.44242
-1.41724
-1.46536
-1.44242
-1.39529
-1.3701
-1.41724
-1.39529
-1.34913
-1.32395
-1.3701
-1.34913
-1.30397
-1.27879
-1.32395
-1.30397
-1.2598
-1.23461
-1.27879
-1.2598
-1.21661
-1.19142
-1.23461
-1.21661
-1.17441
-1.14922
-1.19142
-1.17441
-1.1332
-1.10801
-1.14922
-1.1332
-1.09297
-1.06779
-1.10801
-1.09297
-1.05373
-1.02855
-1.06779
-1.05373
-1.01548
-0.990298
-1.02855
-1.01548
-0.978222
-0.953037
-0.990298
-0.978222
-0.941948
-0.916762
-0.953037
-0.941948
-0.906661
-0.881476
-0.916762
-0.906661
-0.872362
-0.847177
-0.881476
-0.872362
-0.839051
-0.813866
-0.847177
-0.839051
-0.806727
-0.781542
-0.813866
-0.806727
-0.775391
-0.750206
-0.781542
-0.775391
-0.745043
-0.719858
-0.750206
-0.745043
-0.715682
-0.690497
-0.719858
-0.715682
-0.687309
-0.662124
-0.690497
-0.687309
-0.659924
-0.634739
-0.662124
-0.659924
-0.633526
-0.608341
-0.634739
-0.633526
-0.608116
-0.582931
-0.608341
-0.608116
-0.583694
-0.558509
-0.582931
-0.583694
-0.560259
-0.535074
-0.558509
-0.560259
-0.537812
-0.512627
-0.535074
-0.537812
-0.516352
-0.491167
-0.512627
-0.516352
-0.495881
-0.470696
-0.491167
-0.495881
-0.476397
-0.451211
-0.470696
-0.476397
-0.4579
-0.432715
-0.451211
-0.4579
-0.440391
-0.415206
-0.432715
-0.440391
-0.42387
-0.398685
-0.415206
-0.42387
-0.408337
-0.383152
-0.398685
-0.408337
-0.393791
-0.368606
-0.383152
-0.393791
-0.380233
-0.355047
-0.368606
-0.380233
-0.367662
-0.342477
-0.355047
-0.367662
-0.356079
-0.330894
-0.342477
-0.356079
-0.345484
-0.320299
-0.330894
-0.345484
-0.335876
-0.310691
-0.320299
-0.335876
-0.327257
-0.302071
-0.310691
-0.327257
-0.319624
-0.294439
-0.302071
-0.319624
-0.31298
-0.287794
-0.294439
-0.31298
-0.307323
-0.282138
-0.287794
-0.307323
-0.302653
-0.277468
-0.282138
-0.302653
-0.298972
-0.273787
-0.277468
-0.298972
-0.296278
-0.271093
-0.273787
-0.296278
-0.294571
-0.269386
-0.271093
-0.294571
-0.293853
-0.268668
-0.269386
-0.293853
-0.294122
-0.268937
-0.268668
-0.294122
-0.295378
-0.270193
-0.268937
-0.295378
-0.297623
-0.272437
-0.270193
-0.297623
-0.300855
-0.275669
-0.272437
-0.300855
-0.305074
-0.279889
-0.275669
-0.305074
-0.310281
-0.285096
-0.279889
-0.310281
-0.316476
-0.291291
-0.285096
-0.316476
-0.323659
-0.298474
-0.291291
-0.323659
-0.331829
-0.306644
-0.298474
-0.331829
-0.340987
-0.315802
-0.306644
-0.340987
-0.351132
-0.325947
-0.315802
-0.351132
-0.362266
-0.33708
-0.325947
-0.362266
-0.374386
-0.349201
-0.33708
-0.374386
-0.387495
-0.36231
-0.349201
-0.387495
-0.401591
-0.376406
-0.36231
-0.401591
-0.416675
-0.39149
-0.376406
-0.416675
-0.432746
-0.407561
-0.39149
-0.432746
-0.449805
-0.42462
-0.407561
-0.449805
-0.467852
-0.442667
-0.42462
-0.467852
-0.486887
-0.461701
-0.442667
-0.486887
-0.506909
-0.481723
-0.461701
-0.506909
-0.527918
-0.502733
-0.481723
-0.527918
-0.549916
-0.52473
-0.502733
-0.549916
-0.572901
-0.547715
-0.52473
-0.572901
-0.596873
-0.571688
-0.547715
-0.596873
-0.621834
-0.596648
-0.571688
-0.621834
-0.647782
-0.622596
-0.596648
-0.647782
-0.674717
-0.649532
-0.622596
-0.674717
-0.702641
-0.677455
-0.649532
-0.702641
-0.731552
-0.706366
-0.677455
-0.731552
-0.76145
-0.736265
-0.706366
-0.76145
-0.792336
-0.767151
-0.736265
-0.792336
-0.82421
-0.799025
-0.767151
-0.82421
-0.857072
-0.831887
-0.799025
-0.857072
-0.890921
-0.865736
-0.831887
-0.890921
-0.925758
-0.900573
-0.865736
-0.925758
-0.961582
-0.936397
-0.900573
-0.961582
-0.998395
-0.973209
-0.936397
-0.998395
-1.03619
-1.01101
-0.973209
-1.03619
-1.07498
-1.0498
-1.01101
-1.07498
-1.11476
-1.08957
-1.0498
-1.11476
-1.15552
-1.13033
-1.08957
-1.15552
-1.19727
-1.17209
-1.13033
-1.19727
-1.24001
-1.21482
-1.17209
-1.24001
-1.28373
-1.25855
-1.21482
-1.28373
-1.32845
-1.30326
-1.25855
-1.32845
-1.37415
-1.34896
-1.30326
-1.37415
-1.42084
-1.39565
-1.34896
-1.42084
-1.46851
-1.44333
-1.39565
-1.46851
-1.51718
-1.49199
-1.44333
-1.51718
-1.56683
-1.54164
-1.49199
-1.56683
-1.61747
-1.59228
-1.54164
-1.61747
-1.6691
-1.64391
-1.59228
-1.6691
-1.72171
-1.69653
-1.64391
-1.72171
-1.77531
-1.75013
-1.69653
-1.77531
-1.8299
-1.80472
-1.75013
-1.8299
-1.88548
-1.8603
-1.80472
-1.88548
-1.94205
-1.91686
-1.8603
-1.94205
-1.9996
-1.97441
-1.91686
-1.9996
-2.05814
-2.03295
-1.97441
-2.05814
-2.11767
-2.09248
-2.03295
-2.11767
-2.17818
-2.153
-2.09248
-2.17818
-2.23969
-2.2145
-2.153
-2.23969
-2.30218
-2.27699
-2.2145
-2.30218
-2.36566
-2.34047
-2.27699
-2.36566
-2.43012
-2.40494
-2.34047
-2.43012
-2.49558
-2.47039
-2.40494
-2.49558
-2.56202
-2.53683
-2.47039
-2.56202
-2.62945
-2.60426
-2.53683
-2.62945
-2.69787
-2.67268
-2.60426
-2.69787
-2.76727
-2.74209
-2.67268
-2.76727
-2.83766
-2.81248
-2.74209
-2.83766
-2.90904
-2.88386
-2.81248
-2.90904
-2.98141
-2.95623
-2.88386
-2.98141
-3.05477
-3.02958
-2.95623
-3.05477
-3.12911
-3.10392
-3.02958
-3.12911
-3.20444
-3.17925
-3.10392
-3.20444
-3.28076
-3.25557
-3.17925
-3.28076
-3.35806
-3.33288
-3.25557
-3.35806
-3.43636
-3.41117
-3.33288
-1.77486
-1.72081
-1.69661
-1.75066
-1.72081
-1.66775
-1.64355
-1.69661
-1.66775
-1.61567
-1.59147
-1.64355
-1.61567
-1.56458
-1.54038
-1.59147
-1.56458
-1.51448
-1.49028
-1.54038
-1.51448
-1.46536
-1.44117
-1.49028
-1.46536
-1.41724
-1.39304
-1.44117
-1.41724
-1.3701
-1.3459
-1.39304
-1.3701
-1.32395
-1.29975
-1.3459
-1.32395
-1.27879
-1.25459
-1.29975
-1.27879
-1.23461
-1.21041
-1.25459
-1.23461
-1.19142
-1.16723
-1.21041
-1.19142
-1.14922
-1.12503
-1.16723
-1.14922
-1.10801
-1.08381
-1.12503
-1.10801
-1.06779
-1.04359
-1.08381
-1.06779
-1.02855
-1.00435
-1.04359
-1.02855
-0.990298
-0.966101
-1.00435
-0.990298
-0.953037
-0.928839
-0.966101
-0.953037
-0.916762
-0.892565
-0.928839
-0.916762
-0.881476
-0.857278
-0.892565
-0.881476
-0.847177
-0.822979
-0.857278
-0.847177
-0.813866
-0.789668
-0.822979
-0.813866
-0.781542
-0.757344
-0.789668
-0.781542
-0.750206
-0.726008
-0.757344
-0.750206
-0.719858
-0.69566
-0.726008
-0.719858
-0.690497
-0.666299
-0.69566
-0.690497
-0.662124
-0.637926
-0.666299
-0.662124
-0.634739
-0.610541
-0.637926
-0.634739
-0.608341
-0.584143
-0.610541
-0.608341
-0.582931
-0.558733
-0.584143
-0.582931
-0.558509
-0.534311
-0.558733
-0.558509
-0.535074
-0.510876
-0.534311
-0.535074
-0.512627
-0.488429
-0.510876
-0.512627
-0.491167
-0.46697
-0.488429
-0.491167
-0.470696
-0.446498
-0.46697
-0.470696
-0.451211
-0.427014
-0.446498
-0.451211
-0.432715
-0.408517
-0.427014
-0.432715
-0.415206
-0.391009
-0.408517
-0.415206
-0.398685
-0.374487
-0.391009
-0.398685
-0.383152
-0.358954
-0.374487
-0.383152
-0.368606
-0.344408
-0.358954
-0.368606
-0.355047
-0.33085
-0.344408
-0.355047
-0.342477
-0.318279
-0.33085
-0.342477
-0.330894
-0.306697
-0.318279
-0.330894
-0.320299
-0.296101
-0.306697
-0.320299
-0.310691
-0.286494
-0.296101
-0.310691
-0.302071
-0.277874
-0.286494
-0.302071
-0.294439
-0.270242
-0.277874
-0.294439
-0.287794
-0.263597
-0.270242
-0.287794
-0.282138
-0.25794
-0.263597
-0.282138
-0.277468
-0.253271
-0.25794
-0.277468
-0.273787
-0.249589
-0.253271
-0.273787
-0.271093
-0.246895
-0.249589
-0.271093
-0.269386
-0.245189
-0.246895
-0.269386
-0.268668
-0.24447
-0.245189
-0.268668
-0.268937
-0.244739
-0.24447
-0.268937
-0.270193
-0.245996
-0.244739
-0.270193
-0.272437
-0.24824
-0.245996
-0.272437
-0.275669
-0.251472
-0.24824
-0.275669
-0.279889
-0.255691
-0.251472
-0.279889
-0.285096
-0.260899
-0.255691
-0.285096
-0.291291
-0.267094
-0.260899
-0.291291
-0.298474
-0.274276
-0.267094
-0.298474
-0.306644
-0.282446
-0.274276
-0.306644
-0.315802
-0.291604
-0.282446
-0.315802
-0.325947
-0.30175
-0.291604
-0.325947
-0.33708
-0.312883
-0.30175
-0.33708
-0.349201
-0.325004
-0.312883
-0.349201
-0.36231
-0.338112
-0.325004
-0.36231
-0.376406
-0.352208
-0.338112
-0.376406
-0.39149
-0.367292
-0.352208
-0.39149
-0.407561
-0.383364
-0.367292
-0.407561
-0.42462
-0.400423
-0.383364
-0.42462
-0.442667
-0.418469
-0.400423
-0.442667
-0.461701
-0.437504
-0.418469
-0.461701
-0.481723
-0.457526
-0.437504
-0.481723
-0.502733
-0.478536
-0.457526
-0.502733
-0.52473
-0.500533
-0.478536
-0.52473
-0.547715
-0.523518
-0.500533
-0.547715
-0.571688
-0.547491
-0.523518
-0.571688
-0.596648
-0.572451
-0.547491
-0.596648
-0.622596
-0.598399
-0.572451
-0.622596
-0.649532
-0.625335
-0.598399
-0.649532
-0.677455
-0.653258
-0.625335
-0.677455
-0.706366
-0.682169
-0.653258
-0.706366
-0.736265
-0.712067
-0.682169
-0.736265
-0.767151
-0.742954
-0.712067
-0.767151
-0.799025
-0.774828
-0.742954
-0.799025
-0.831887
-0.807689
-0.774828
-0.831887
-0.865736
-0.841538
-0.807689
-0.865736
-0.900573
-0.876375
-0.841538
-0.900573
-0.936397
-0.9122
-0.876375
-0.936397
-0.973209
-0.949012
-0.9122
-0.973209
-1.01101
-0.986812
-0.949012
-1.01101
-1.0498
-1.0256
-0.986812
-1.0498
-1.08957
-1.06537
-1.0256
-1.08957
-1.13033
-1.10614
-1.06537
-1.13033
-1.17209
-1.14789
-1.10614
-1.17209
-1.21482
-1.19063
-1.14789
-1.21482
-1.25855
-1.23435
-1.19063
-1.25855
-1.30326
-1.27906
-1.23435
-1.30326
-1.34896
-1.32477
-1.27906
-1.34896
-1.39565
-1.37145
-1.32477
-1.39565
-1.44333
-1.41913
-1.37145
-1.44333
-1.49199
-1.4678
-1.41913
-1.49199
-1.54164
-1.51745
-1.4678
-1.54164
-1.59228
-1.56809
-1.51745
-1.59228
-1.64391
-1.61971
-1.56809
-1.64391
-1.69653
-1.67233
-1.61971
-1.69653
-1.75013
-1.72593
-1.67233
-1.75013
-1.80472
-1.78052
-1.72593
-1.80472
-1.8603
-1.8361
-1.78052
-1.8603
-1.91686
-1.89266
-1.8361
-1.91686
-1.97441
-1.95022
-1.89266
-1.97441
-2.03295
-2.00876
-1.95022
-2.03295
-2.09248
-2.06828
-2.00876
-2.09248
-2.153
-2.1288
-2.06828
-2.153
-2.2145
-2.1903
-2.1288
-2.2145
-2.27699
-2.2528
-2.1903
-2.27699
-2.34047
-2.31627
-2.2528
-2.34047
-2.40494
-2.38074
-2.31627
-2.40494
-2.47039
-2.44619
-2.38074
-2.47039
-2.53683
-2.51264
-2.44619
-2.53683
-2.60426
-2.58007
-2.51264
-2.60426
-2.67268
-2.64848
-2.58007
-2.67268
-2.74209
-2.71789
-2.64848
-2.74209
-2.81248
-2.78828
-2.71789
-2.81248
-2.88386
-2.85966
-2.78828
-2.88386
-2.95623
-2.93203
-2.85966
-2.95623
-3.02958
-3.00538
-2.93203
-3.02958
-3.10392
-3.07973
-3.00538
-3.10392
-3.17925
-3.15506
-3.07973
-3.17925
-3.25557
-3.23138
-3.15506
-3.25557
-3.33288
-3.30868
-3.23138
-3.33288
-3.41117
-3.38698
-3.30868
-1.75066
-1.69661
-1.6734
-1.72745
-1.69661
-1.64355
-1.62034
-1.6734
-1.64355
-1.59147
-1.56826
-1.62034
-1.59147
-1.54038
-1.51717
-1.56826
-1.54038
-1.49028
-1.46707
-1.51717
-1.49028
-1.44117
-1.41796
-1.46707
-1.44117
-1.39304
-1.36983
-1.41796
-1.39304
-1.3459
-1.32269
-1.36983
-1.3459
-1.29975
-1.27654
-1.32269
-1.29975
-1.25459
-1.23138
-1.27654
-1.25459
-1.21041
-1.1872
-1.23138
-1.21041
-1.16723
-1.14402
-1.1872
-1.16723
-1.12503
-1.10182
-1.14402
-1.12503
-1.08381
-1.0606
-1.10182
-1.08381
-1.04359
-1.02038
-1.0606
-1.04359
-1.00435
-0.981141
-1.02038
-1.00435
-0.966101
-0.942891
-0.981141
-0.966101
-0.928839
-0.905629
-0.942891
-0.928839
-0.892565
-0.869355
-0.905629
-0.892565
-0.857278
-0.834068
-0.869355
-0.857278
-0.822979
-0.799769
-0.834068
-0.822979
-0.789668
-0.766458
-0.799769
-0.789668
-0.757344
-0.734135
-0.766458
-0.757344
-0.726008
-0.702799
-0.734135
-0.726008
-0.69566
-0.67245
-0.702799
-0.69566
-0.666299
-0.64309
-0.67245
-0.666299
-0.637926
-0.614717
-0.64309
-0.637926
-0.610541
-0.587331
-0.614717
-0.610541
-0.584143
-0.560934
-0.587331
-0.584143
-0.558733
-0.535524
-0.560934
-0.558733
-0.534311
-0.511101
-0.535524
-0.534311
-0.510876
-0.487666
-0.511101
-0.510876
-0.488429
-0.465219
-0.487666
-0.488429
-0.46697
-0.44376
-0.465219
-0.46697
-0.446498
-0.423288
-0.44376
-0.446498
-0.427014
-0.403804
-0.423288
-0.427014
-0.408517
-0.385308
-0.403804
-0.408517
-0.391009
-0.367799
-0.385308
-0.391009
-0.374487
-0.351278
-0.367799
-0.374487
-0.358954
-0.335744
-0.351278
-0.358954
-0.344408
-0.321198
-0.335744
-0.344408
-0.33085
-0.30764
-0.321198
-0.33085
-0.318279
-0.29507
-0.30764
-0.318279
-0.306697
-0.283487
-0.29507
-0.306697
-0.296101
-0.272891
-0.283487
-0.296101
-0.286494
-0.263284
-0.272891
-0.286494
-0.277874
-0.254664
-0.263284
-0.277874
-0.270242
-0.247032
-0.254664
-0.270242
-0.263597
-0.240387
-0.247032
-0.263597
-0.25794
-0.23473
-0.240387
-0.25794
-0.253271
-0.230061
-0.23473
-0.253271
-0.249589
-0.226379
-0.230061
-0.249589
-0.246895
-0.223685
-0.226379
-0.246895
-0.245189
-0.221979
-0.223685
-0.245189
-0.24447
-0.22126
-0.221979
-0.24447
-0.244739
-0.221529
-0.22126
-0.244739
-0.245996
-0.222786
-0.221529
-0.245996
-0.24824
-0.22503
-0.222786
-0.24824
-0.251472
-0.228262
-0.22503
-0.251472
-0.255691
-0.232482
-0.228262
-0.255691
-0.260899
-0.237689
-0.232482
-0.260899
-0.267094
-0.243884
-0.237689
-0.267094
-0.274276
-0.251066
-0.243884
-0.274276
-0.282446
-0.259236
-0.251066
-0.282446
-0.291604
-0.268394
-0.259236
-0.291604
-0.30175
-0.27854
-0.268394
-0.30175
-0.312883
-0.289673
-0.27854
-0.312883
-0.325004
-0.301794
-0.289673
-0.325004
-0.338112
-0.314902
-0.301794
-0.338112
-0.352208
-0.328998
-0.314902
-0.352208
-0.367292
-0.344082
-0.328998
-0.367292
-0.383364
-0.360154
-0.344082
-0.383364
-0.400423
-0.377213
-0.360154
-0.400423
-0.418469
-0.39526
-0.377213
-0.418469
-0.437504
-0.414294
-0.39526
-0.437504
-0.457526
-0.434316
-0.414294
-0.457526
-0.478536
-0.455326
-0.434316
-0.478536
-0.500533
-0.477323
-0.455326
-0.500533
-0.523518
-0.500308
-0.477323
-0.523518
-0.547491
-0.524281
-0.500308
-0.547491
-0.572451
-0.549241
-0.524281
-0.572451
-0.598399
-0.575189
-0.549241
-0.598399
-0.625335
-0.602125
-0.575189
-0.625335
-0.653258
-0.630048
-0.602125
-0.653258
-0.682169
-0.658959
-0.630048
-0.682169
-0.712067
-0.688858
-0.658959
-0.712067
-0.742954
-0.719744
-0.688858
-0.742954
-0.774828
-0.751618
-0.719744
-0.774828
-0.807689
-0.784479
-0.751618
-0.807689
-0.841538
-0.818329
-0.784479
-0.841538
-0.876375
-0.853165
-0.818329
-0.876375
-0.9122
-0.88899
-0.853165
-0.9122
-0.949012
-0.925802
-0.88899
-0.949012
-0.986812
-0.963602
-0.925802
-0.986812
-1.0256
-1.00239
-0.963602
-1.0256
-1.06537
-1.04216
-1.00239
-1.06537
-1.10614
-1.08293
-1.04216
-1.10614
-1.14789
-1.12468
-1.08293
-1.14789
-1.19063
-1.16742
-1.12468
-1.19063
-1.23435
-1.21114
-1.16742
-1.23435
-1.27906
-1.25586
-1.21114
-1.27906
-1.32477
-1.30156
-1.25586
-1.32477
-1.37145
-1.34824
-1.30156
-1.37145
-1.41913
-1.39592
-1.34824
-1.41913
-1.4678
-1.44459
-1.39592
-1.4678
-1.51745
-1.49424
-1.44459
-1.51745
-1.56809
-1.54488
-1.49424
-1.56809
-1.61971
-1.5965
-1.54488
-1.61971
-1.67233
-1.64912
-1.5965
-1.67233
-1.72593
-1.70272
-1.64912
-1.72593
-1.78052
-1.75731
-1.70272
-1.78052
-1.8361
-1.81289
-1.75731
-1.8361
-1.89266
-1.86945
-1.81289
-1.89266
-1.95022
-1.92701
-1.86945
-1.95022
-2.00876
-1.98555
-1.92701
-2.00876
-2.06828
-2.04507
-1.98555
-2.06828
-2.1288
-2.10559
-2.04507
-2.1288
-2.1903
-2.16709
-2.10559
-2.1903
-2.2528
-2.22959
-2.16709
-2.2528
-2.31627
-2.29306
-2.22959