# vtk DataFile Version 1.0
unstructured Grid
ASCII
DATASET UNSTRUCTURED_GRID
POINTS 23440 float 
0 0	 0.0
0.0222222 0	 0.0
0.0222222 0.0222222	 0.0
0 0.0222222	 0.0
0.0222222 0	 0.0
0.0444444 0	 0.0
0.0444444 0.0222222	 0.0
0.0222222 0.0222222	 0.0
0.0444444 0	 0.0
0.0666667 0	 0.0
0.0666667 0.0222222	 0.0
0.0444444 0.0222222	 0.0
0.0666667 0	 0.0
0.0888889 0	 0.0
0.0888889 0.0222222	 0.0
0.0666667 0.0222222	 0.0
0.0888889 0	 0.0
0.111111 0	 0.0
0.111111 0.0222222	 0.0
0.0888889 0.0222222	 0.0
0.111111 0	 0.0
0.133333 0	 0.0
0.133333 0.0222222	 0.0
0.111111 0.0222222	 0.0
0.133333 0	 0.0
0.155556 0	 0.0
0.155556 0.0222222	 0.0
0.133333 0.0222222	 0.0
0.155556 0	 0.0
0.177778 0	 0.0
0.177778 0.0222222	 0.0
0.155556 0.0222222	 0.0
0.177778 0	 0.0
0.2 0	 0.0
0.2 0.0222222	 0.0
0.177778 0.0222222	 0.0
0.2 0	 0.0
0.222222 0	 0.0
0.222222 0.0222222	 0.0
0.2 0.0222222	 0.0
0.222222 0	 0.0
0.244444 0	 0.0
0.244444 0.0222222	 0.0
0.222222 0.0222222	 0.0
0.244444 0	 0.0
0.266667 0	 0.0
0.266667 0.0222222	 0.0
0.244444 0.0222222	 0.0
0.266667 0	 0.0
0.288889 0	 0.0
0.288889 0.0222222	 0.0
0.266667 0.0222222	 0.0
0.288889 0	 0.0
0.311111 0	 0.0
0.311111 0.0222222	 0.0
0.288889 0.0222222	 0.0
0.311111 0	 0.0
0.333333 0	 0.0
0.333333 0.0222222	 0.0
0.311111 0.0222222	 0.0
0.333333 0	 0.0
0.355556 0	 0.0
0.355556 0.0222222	 0.0
0.333333 0.0222222	 0.0
0.355556 0	 0.0
0.377778 0	 0.0
0.377778 0.0222222	 0.0
0.355556 0.0222222	 0.0
0.377778 0	 0.0
0.4 0	 0.0
0.4 0.0222222	 0.0
0.377778 0.0222222	 0.0
0.4 0	 0.0
0.422222 0	 0.0
0.422222 0.0222222	 0.0
0.4 0.0222222	 0.0
0.422222 0	 0.0
0.444444 0	 0.0
0.444444 0.0222222	 0.0
0.422222 0.0222222	 0.0
0.444444 0	 0.0
0.466667 0	 0.0
0.466667 0.0222222	 0.0
0.444444 0.0222222	 0.0
0.466667 0	 0.0
0.488889 0	 0.0
0.488889 0.0222222	 0.0
0.466667 0.0222222	 0.0
0.488889 0	 0.0
0.511111 0	 0.0
0.511111 0.0222222	 0.0
0.488889 0.0222222	 0.0
0.511111 0	 0.0
0.533333 0	 0.0
0.533333 0.0222222	 0.0
0.511111 0.0222222	 0.0
0.533333 0	 0.0
0.555556 0	 0.0
0.555556 0.0222222	 0.0
0.533333 0.0222222	 0.0
0.555556 0	 0.0
0.577778 0	 0.0
0.577778 0.0222222	 0.0
0.555556 0.0222222	 0.0
0.577778 0	 0.0
0.6 0	 0.0
0.6 0.0222222	 0.0
0.577778 0.0222222	 0.0
0.6 0	 0.0
0.622222 0	 0.0
0.622222 0.0222222	 0.0
0.6 0.0222222	 0.0
0.622222 0	 0.0
0.644444 0	 0.0
0.644444 0.0222222	 0.0
0.622222 0.0222222	 0.0
0.644444 0	 0.0
0.666667 0	 0.0
0.666667 0.0222222	 0.0
0.644444 0.0222222	 0.0
0.666667 0	 0.0
0.688889 0	 0.0
0.688889 0.0222222	 0.0
0.666667 0.0222222	 0.0
0.688889 0	 0.0
0.711111 0	 0.0
0.711111 0.0222222	 0.0
0.688889 0.0222222	 0.0
0.711111 0	 0.0
0.733333 0	 0.0
0.733333 0.0222222	 0.0
0.711111 0.0222222	 0.0
0.733333 0	 0.0
0.755556 0	 0.0
0.755556 0.0222222	 0.0
0.733333 0.0222222	 0.0
0.755556 0	 0.0
0.777778 0	 0.0
0.777778 0.0222222	 0.0
0.755556 0.0222222	 0.0
0.777778 0	 0.0
0.8 0	 0.0
0.8 0.0222222	 0.0
0.777778 0.0222222	 0.0
0.8 0	 0.0
0.822222 0	 0.0
0.822222 0.0222222	 0.0
0.8 0.0222222	 0.0
0.822222 0	 0.0
0.844444 0	 0.0
0.844444 0.0222222	 0.0
0.822222 0.0222222	 0.0
0.844444 0	 0.0
0.866667 0	 0.0
0.866667 0.0222222	 0.0
0.844444 0.0222222	 0.0
0.866667 0	 0.0
0.888889 0	 0.0
0.888889 0.0222222	 0.0
0.866667 0.0222222	 0.0
0.888889 0	 0.0
0.911111 0	 0.0
0.911111 0.0222222	 0.0
0.888889 0.0222222	 0.0
0.911111 0	 0.0
0.933333 0	 0.0
0.933333 0.0222222	 0.0
0.911111 0.0222222	 0.0
0.933333 0	 0.0
0.955556 0	 0.0
0.955556 0.0222222	 0.0
0.933333 0.0222222	 0.0
0.955556 0	 0.0
0.977778 0	 0.0
0.977778 0.0222222	 0.0
0.955556 0.0222222	 0.0
0.977778 0	 0.0
1 0	 0.0
1 0.0222222	 0.0
0.977778 0.0222222	 0.0
1 0	 0.0
1.02222 0	 0.0
1.02222 0.0222222	 0.0
1 0.0222222	 0.0
1.02222 0	 0.0
1.04444 0	 0.0
1.04444 0.0222222	 0.0
1.02222 0.0222222	 0.0
1.04444 0	 0.0
1.06667 0	 0.0
1.06667 0.0222222	 0.0
1.04444 0.0222222	 0.0
1.06667 0	 0.0
1.08889 0	 0.0
1.08889 0.0222222	 0.0
1.06667 0.0222222	 0.0
1.08889 0	 0.0
1.11111 0	 0.0
1.11111 0.0222222	 0.0
1.08889 0.0222222	 0.0
1.11111 0	 0.0
1.13333 0	 0.0
1.13333 0.0222222	 0.0
1.11111 0.0222222	 0.0
1.13333 0	 0.0
1.15556 0	 0.0
1.15556 0.0222222	 0.0
1.13333 0.0222222	 0.0
1.15556 0	 0.0
1.17778 0	 0.0
1.17778 0.0222222	 0.0
1.15556 0.0222222	 0.0
1.17778 0	 0.0
1.2 0	 0.0
1.2 0.0222222	 0.0
1.17778 0.0222222	 0.0
1.2 0	 0.0
1.22222 0	 0.0
1.22222 0.0222222	 0.0
1.2 0.0222222	 0.0
1.22222 0	 0.0
1.24444 0	 0.0
1.24444 0.0222222	 0.0
1.22222 0.0222222	 0.0
1.24444 0	 0.0
1.26667 0	 0.0
1.26667 0.0222222	 0.0
1.24444 0.0222222	 0.0
1.26667 0	 0.0
1.28889 0	 0.0
1.28889 0.0222222	 0.0
1.26667 0.0222222	 0.0
1.28889 0	 0.0
1.31111 0	 0.0
1.31111 0.0222222	 0.0
1.28889 0.0222222	 0.0
1.31111 0	 0.0
1.33333 0	 0.0
1.33333 0.0222222	 0.0
1.31111 0.0222222	 0.0
1.33333 0	 0.0
1.35556 0	 0.0
1.35556 0.0222222	 0.0
1.33333 0.0222222	 0.0
1.35556 0	 0.0
1.37778 0	 0.0
1.37778 0.0222222	 0.0
1.35556 0.0222222	 0.0
1.37778 0	 0.0
1.4 0	 0.0
1.4 0.0222222	 0.0
1.37778 0.0222222	 0.0
1.4 0	 0.0
1.42222 0	 0.0
1.42222 0.0222222	 0.0
1.4 0.0222222	 0.0
1.42222 0	 0.0
1.44444 0	 0.0
1.44444 0.0222222	 0.0
1.42222 0.0222222	 0.0
1.44444 0	 0.0
1.46667 0	 0.0
1.46667 0.0222222	 0.0
1.44444 0.0222222	 0.0
1.46667 0	 0.0
1.48889 0	 0.0
1.48889 0.0222222	 0.0
1.46667 0.0222222	 0.0
1.48889 0	 0.0
1.51111 0	 0.0
1.51111 0.0222222	 0.0
1.48889 0.0222222	 0.0
1.51111 0	 0.0
1.53333 0	 0.0
1.53333 0.0222222	 0.0
1.51111 0.0222222	 0.0
1.53333 0	 0.0
1.55556 0	 0.0
1.55556 0.0222222	 0.0
1.53333 0.0222222	 0.0
1.55556 0	 0.0
1.57778 0	 0.0
1.57778 0.0222222	 0.0
1.55556 0.0222222	 0.0
1.57778 0	 0.0
1.6 0	 0.0
1.6 0.0222222	 0.0
1.57778 0.0222222	 0.0
1.6 0	 0.0
1.62222 0	 0.0
1.62222 0.0222222	 0.0
1.6 0.0222222	 0.0
1.62222 0	 0.0
1.64444 0	 0.0
1.64444 0.0222222	 0.0
1.62222 0.0222222	 0.0
1.64444 0	 0.0
1.66667 0	 0.0
1.66667 0.0222222	 0.0
1.64444 0.0222222	 0.0
1.66667 0	 0.0
1.68889 0	 0.0
1.68889 0.0222222	 0.0
1.66667 0.0222222	 0.0
1.68889 0	 0.0
1.71111 0	 0.0
1.71111 0.0222222	 0.0
1.68889 0.0222222	 0.0
1.71111 0	 0.0
1.73333 0	 0.0
1.73333 0.0222222	 0.0
1.71111 0.0222222	 0.0
1.73333 0	 0.0
1.75556 0	 0.0
1.75556 0.0222222	 0.0
1.73333 0.0222222	 0.0
1.75556 0	 0.0
1.77778 0	 0.0
1.77778 0.0222222	 0.0
1.75556 0.0222222	 0.0
1.77778 0	 0.0
1.8 0	 0.0
1.8 0.0222222	 0.0
1.77778 0.0222222	 0.0
1.8 0	 0.0
1.82222 0	 0.0
1.82222 0.0222222	 0.0
1.8 0.0222222	 0.0
1.82222 0	 0.0
1.84444 0	 0.0
1.84444 0.0222222	 0.0
1.82222 0.0222222	 0.0
1.84444 0	 0.0
1.86667 0	 0.0
1.86667 0.0222222	 0.0
1.84444 0.0222222	 0.0
1.86667 0	 0.0
1.88889 0	 0.0
1.88889 0.0222222	 0.0
1.86667 0.0222222	 0.0
1.88889 0	 0.0
1.91111 0	 0.0
1.91111 0.0222222	 0.0
1.88889 0.0222222	 0.0
1.91111 0	 0.0
1.93333 0	 0.0
1.93333 0.0222222	 0.0
1.91111 0.0222222	 0.0
1.93333 0	 0.0
1.95556 0	 0.0
1.95556 0.0222222	 0.0
1.93333 0.0222222	 0.0
1.95556 0	 0.0
1.97778 0	 0.0
1.97778 0.0222222	 0.0
1.95556 0.0222222	 0.0
1.97778 0	 0.0
2 0	 0.0
2 0.0222222	 0.0
1.97778 0.0222222	 0.0
2 0	 0.0
2.02222 0	 0.0
2.02222 0.0222222	 0.0
2 0.0222222	 0.0
2.02222 0	 0.0
2.04444 0	 0.0
2.04444 0.0222222	 0.0
2.02222 0.0222222	 0.0
2.04444 0	 0.0
2.06667 0	 0.0
2.06667 0.0222222	 0.0
2.04444 0.0222222	 0.0
2.06667 0	 0.0
2.08889 0	 0.0
2.08889 0.0222222	 0.0
2.06667 0.0222222	 0.0
2.08889 0	 0.0
2.11111 0	 0.0
2.11111 0.0222222	 0.0
2.08889 0.0222222	 0.0
2.11111 0	 0.0
2.13333 0	 0.0
2.13333 0.0222222	 0.0
2.11111 0.0222222	 0.0
2.13333 0	 0.0
2.15556 0	 0.0
2.15556 0.0222222	 0.0
2.13333 0.0222222	 0.0
2.15556 0	 0.0
2.17778 0	 0.0
2.17778 0.0222222	 0.0
2.15556 0.0222222	 0.0
2.17778 0	 0.0
2.2 0	 0.0
2.2 0.0222222	 0.0
2.17778 0.0222222	 0.0
2.2 0	 0.0
2.22222 0	 0.0
2.22222 0.0222222	 0.0
2.2 0.0222222	 0.0
2.22222 0	 0.0
2.24444 0	 0.0
2.24444 0.0222222	 0.0
2.22222 0.0222222	 0.0
2.24444 0	 0.0
2.26667 0	 0.0
2.26667 0.0222222	 0.0
2.24444 0.0222222	 0.0
2.26667 0	 0.0
2.28889 0	 0.0
2.28889 0.0222222	 0.0
2.26667 0.0222222	 0.0
2.28889 0	 0.0
2.31111 0	 0.0
2.31111 0.0222222	 0.0
2.28889 0.0222222	 0.0
2.31111 0	 0.0
2.33333 0	 0.0
2.33333 0.0222222	 0.0
2.31111 0.0222222	 0.0
2.33333 0	 0.0
2.35556 0	 0.0
2.35556 0.0222222	 0.0
2.33333 0.0222222	 0.0
2.35556 0	 0.0
2.37778 0	 0.0
2.37778 0.0222222	 0.0
2.35556 0.0222222	 0.0
2.37778 0	 0.0
2.4 0	 0.0
2.4 0.0222222	 0.0
2.37778 0.0222222	 0.0
2.4 0	 0.0
2.42222 0	 0.0
2.42222 0.0222222	 0.0
2.4 0.0222222	 0.0
2.42222 0	 0.0
2.44444 0	 0.0
2.44444 0.0222222	 0.0
2.42222 0.0222222	 0.0
2.44444 0	 0.0
2.46667 0	 0.0
2.46667 0.0222222	 0.0
2.44444 0.0222222	 0.0
2.46667 0	 0.0
2.48889 0	 0.0
2.48889 0.0222222	 0.0
2.46667 0.0222222	 0.0
2.48889 0	 0.0
2.51111 0	 0.0
2.51111 0.0222222	 0.0
2.48889 0.0222222	 0.0
2.51111 0	 0.0
2.53333 0	 0.0
2.53333 0.0222222	 0.0
2.51111 0.0222222	 0.0
2.53333 0	 0.0
2.55556 0	 0.0
2.55556 0.0222222	 0.0
2.53333 0.0222222	 0.0
2.55556 0	 0.0
2.57778 0	 0.0
2.57778 0.0222222	 0.0
2.55556 0.0222222	 0.0
2.57778 0	 0.0
2.6 0	 0.0
2.6 0.0222222	 0.0
2.57778 0.0222222	 0.0
2.6 0	 0.0
2.62222 0	 0.0
2.62222 0.0222222	 0.0
2.6 0.0222222	 0.0
2.62222 0	 0.0
2.64444 0	 0.0
2.64444 0.0222222	 0.0
2.62222 0.0222222	 0.0
2.64444 0	 0.0
2.66667 0	 0.0
2.66667 0.0222222	 0.0
2.64444 0.0222222	 0.0
2.66667 0	 0.0
2.68889 0	 0.0
2.68889 0.0222222	 0.0
2.66667 0.0222222	 0.0
2.68889 0	 0.0
2.71111 0	 0.0
2.71111 0.0222222	 0.0
2.68889 0.0222222	 0.0
2.71111 0	 0.0
2.73333 0	 0.0
2.73333 0.0222222	 0.0
2.71111 0.0222222	 0.0
2.73333 0	 0.0
2.75556 0	 0.0
2.75556 0.0222222	 0.0
2.73333 0.0222222	 0.0
2.75556 0	 0.0
2.77778 0	 0.0
2.77778 0.0222222	 0.0
2.75556 0.0222222	 0.0
2.77778 0	 0.0
2.8 0	 0.0
2.8 0.0222222	 0.0
2.77778 0.0222222	 0.0
2.8 0	 0.0
2.82222 0	 0.0
2.82222 0.0222222	 0.0
2.8 0.0222222	 0.0
2.82222 0	 0.0
2.84444 0	 0.0
2.84444 0.0222222	 0.0
2.82222 0.0222222	 0.0
2.84444 0	 0.0
2.86667 0	 0.0
2.86667 0.0222222	 0.0
2.84444 0.0222222	 0.0
2.86667 0	 0.0
2.88889 0	 0.0
2.88889 0.0222222	 0.0
2.86667 0.0222222	 0.0
2.88889 0	 0.0
2.91111 0	 0.0
2.91111 0.0222222	 0.0
2.88889 0.0222222	 0.0
2.91111 0	 0.0
[...]
POINT_DATA 23440
SCALARS levelset_first float
LOOKUP_TABLE default
-4.5439
-4.45305
-4.42687
-4.51772
-4.45305
-4.36319
-4.33701
-4.42687
-4.36319
-4.27431
-4.24814
-4.33701
-4.27431
-4.18643
-4.16025
-4.24814
-4.18643
-4.09953
-4.07335
-4.16025
-4.09953
-4.01362
-3.98744
-4.07335
-4.01362
-3.92869
-3.90252
-3.98744
-3.92869
-3.84476
-3.81859
-3.90252
-3.84476
-3.76181
-3.73564
-3.81859
-3.76181
-3.67985
-3.65368
-3.73564
-3.67985
-3.59888
-3.57271
-3.65368
-3.59888
-3.51889
-3.49272
-3.57271
-3.51889
-3.4399
-3.41372
-3.49272
-3.4399
-3.36189
-3.33571
-3.41372
-3.36189
-3.28487
-3.25869
-3.33571
-3.28487
-3.20883
-3.18266
-3.25869
-3.20883
-3.13378
-3.10761
-3.18266
-3.13378
-3.05973
-3.03355
-3.10761
-3.05973
-2.98665
-2.96048
-3.03355
-2.98665
-2.91457
-2.8884
-2.96048
-2.91457
-2.84348
-2.8173
-2.8884
-2.84348
-2.77337
-2.74719
-2.8173
-2.77337
-2.70425
-2.67807
-2.74719
-2.70425
-2.63611
-2.60994
-2.67807
-2.63611
-2.56897
-2.5428
-2.60994
-2.56897
-2.50281
-2.47664
-2.5428
-2.50281
-2.43764
-2.41147
-2.47664
-2.43764
-2.37346
-2.34729
-2.41147
-2.37346
-2.31026
-2.28409
-2.34729
-2.31026
-2.24806
-2.22188
-2.28409
-2.24806
-2.18684
-2.16067
-2.22188
-2.18684
-2.12661
-2.10043
-2.16067
-2.12661
-2.06736
-2.04119
-2.10043
-2.06736
-2.00911
-1.98293
-2.04119
-2.00911
-1.95184
-1.92566
-1.98293
-1.95184
-1.89556
-1.86938
-1.92566
-1.89556
-1.84026
-1.81409
-1.86938
-1.84026
-1.78596
-1.75978
-1.81409
-1.78596
-1.73264
-1.70647
-1.75978
-1.73264
-1.68031
-1.65414
-1.70647
-1.68031
-1.62897
-1.60279
-1.65414
-1.62897
-1.57861
-1.55244
-1.60279
-1.57861
-1.52924
-1.50307
-1.55244
-1.52924
-1.48086
-1.45469
-1.50307
-1.48086
-1.43347
-1.4073
-1.45469
-1.43347
-1.38707
-1.36089
-1.4073
-1.38707
-1.34165
-1.31548
-1.36089
-1.34165
-1.29722
-1.27105
-1.31548
-1.29722
-1.25378
-1.22761
-1.27105
-1.25378
-1.21133
-1.18515
-1.22761
-1.21133
-1.16986
-1.14369
-1.18515
-1.16986
-1.12938
-1.10321
-1.14369
-1.12938
-1.08989
-1.06372
-1.10321
-1.08989
-1.05139
-1.02521
-1.06372
-1.05139
-1.01387
-0.987699
-1.02521
-1.01387
-0.977344
-0.951171
-0.987699
-0.977344
-0.941803
-0.915631
-0.951171
-0.941803
-0.907251
-0.881078
-0.915631
-0.907251
-0.873686
-0.847513
-0.881078
-0.873686
-0.841108
-0.814936
-0.847513
-0.841108
-0.809519
-0.783346
-0.814936
-0.809519
-0.778917
-0.752744
-0.783346
-0.778917
-0.749302
-0.72313
-0.752744
-0.749302
-0.720676
-0.694503
-0.72313
-0.720676
-0.693037
-0.666864
-0.694503
-0.693037
-0.666385
-0.640212
-0.666864
-0.666385
-0.640722
-0.614549
-0.640212
-0.640722
-0.616046
-0.589873
-0.614549
-0.616046
-0.592357
-0.566184
-0.589873
-0.592357
-0.569656
-0.543483
-0.566184
-0.569656
-0.547943
-0.52177
-0.543483
-0.547943
-0.527218
-0.501045
-0.52177
-0.527218
-0.50748
-0.481307
-0.501045
-0.50748
-0.48873
-0.462557
-0.481307
-0.48873
-0.470967
-0.444794
-0.462557
-0.470967
-0.454192
-0.42802
-0.444794
-0.454192
-0.438405
-0.412232
-0.42802
-0.438405
-0.423606
-0.397433
-0.412232
-0.423606
-0.409794
-0.383621
-0.397433
-0.409794
-0.39697
-0.370797
-0.383621
-0.39697
-0.385133
-0.35896
-0.370797
-0.385133
-0.374284
-0.348111
-0.35896
-0.374284
-0.364423
-0.33825
-0.348111
-0.364423
-0.355549
-0.329376
-0.33825
-0.355549
-0.347663
-0.32149
-0.329376
-0.347663
-0.340765
-0.314592
-0.32149
-0.340765
-0.334854
-0.308682
-0.314592
-0.334854
-0.329931
-0.303759
-0.308682
-0.329931
-0.325996
-0.299823
-0.303759
-0.325996
-0.323048
-0.296875
-0.299823
-0.323048
-0.321088
-0.294915
-0.296875
-0.321088
-0.320116
-0.293943
-0.294915
-0.320116
-0.320131
-0.293958
-0.293943
-0.320131
-0.321134
-0.294961
-0.293958
-0.321134
-0.323125
-0.296952
-0.294961
-0.323125
-0.326103
-0.29993
-0.296952
-0.326103
-0.330069
-0.303896
-0.29993
-0.330069
-0.335022
-0.30885
-0.303896
-0.335022
-0.340964
-0.314791
-0.30885
-0.340964
-0.347892
-0.32172
-0.314791
-0.347892
-0.355809
-0.329636
-0.32172
-0.355809
-0.364713
-0.33854
-0.329636
-0.364713
-0.374605
-0.348432
-0.33854
-0.374605
-0.385484
-0.359312
-0.348432
-0.385484
-0.397352
-0.371179
-0.359312
-0.397352
-0.410206
-0.384034
-0.371179
-0.410206
-0.424049
-0.397876
-0.384034
-0.424049
-0.438879
-0.412706
-0.397876
-0.438879
-0.454697
-0.428524
-0.412706
-0.454697
-0.471502
-0.445329
-0.428524
-0.471502
-0.489295
-0.463122
-0.445329
-0.489295
-0.508076
-0.481903
-0.463122
-0.508076
-0.527844
-0.501671
-0.481903
-0.527844
-0.5486
-0.522427
-0.501671
-0.5486
-0.570344
-0.544171
-0.522427
-0.570344
-0.593075
-0.566902
-0.544171
-0.593075
-0.616794
-0.590621
-0.566902
-0.616794
-0.641501
-0.615328
-0.590621
-0.641501
-0.667195
-0.641022
-0.615328
-0.667195
-0.693877
-0.667704
-0.641022
-0.693877
-0.721547
-0.695374
-0.667704
-0.721547
-0.750204
-0.724031
-0.695374
-0.750204
-0.779849
-0.753676
-0.724031
-0.779849
-0.810481
-0.784309
-0.753676
-0.810481
-0.842102
-0.815929
-0.784309
-0.842102
-0.87471
-0.848537
-0.815929
-0.87471
-0.908305
-0.882132
-0.848537
-0.908305
-0.942888
-0.916715
-0.882132
-0.942888
-0.978459
-0.952286
-0.916715
-0.978459
-1.01502
-0.988845
-0.952286
-1.01502
-1.05256
-1.02639
-0.988845
-1.05256
-1.0911
-1.06492
-1.02639
-1.0911
-1.13062
-1.10445
-1.06492
-1.13062
-1.17113
-1.14496
-1.10445
-1.17113
-1.21262
-1.18645
-1.14496
-4.51772
-4.42687
-4.40169
-4.49254
-4.42687
-4.33701
-4.31183
-4.40169
-4.33701
-4.24814
-4.22295
-4.31183
-4.24814
-4.16025
-4.13507
-4.22295
-4.16025
-4.07335
-4.04817
-4.13507
-4.07335
-3.98744
-3.96226
-4.04817
-3.98744
-3.90252
-3.87734
-3.96226
-3.90252
-3.81859
-3.7934
-3.87734
-3.81859
-3.73564
-3.71045
-3.7934
-3.73564
-3.65368
-3.62849
-3.71045
-3.65368
-3.57271
-3.54752
-3.62849
-3.57271
-3.49272
-3.46754
-3.54752
-3.49272
-3.41372
-3.38854
-3.46754
-3.41372
-3.33571
-3.31053
-3.38854
-3.33571
-3.25869
-3.23351
-3.31053
-3.25869
-3.18266
-3.15747
-3.23351
-3.18266
-3.10761
-3.08243
-3.15747
-3.10761
-3.03355
-3.00837
-3.08243
-3.03355
-2.96048
-2.9353
-3.00837
-2.96048
-2.8884
-2.86321
-2.9353
-2.8884
-2.8173
-2.79212
-2.86321
-2.8173
-2.74719
-2.72201
-2.79212
-2.74719
-2.67807
-2.65289
-2.72201
-2.67807
-2.60994
-2.58476
-2.65289
-2.60994
-2.5428
-2.51761
-2.58476
-2.5428
-2.47664
-2.45145
-2.51761
-2.47664
-2.41147
-2.38628
-2.45145
-2.41147
-2.34729
-2.3221
-2.38628
-2.34729
-2.28409
-2.25891
-2.3221
-2.28409
-2.22188
-2.1967
-2.25891
-2.22188
-2.16067
-2.13548
-2.1967
-2.16067
-2.10043
-2.07525
-2.13548
-2.10043
-2.04119
-2.016
-2.07525
-2.04119
-1.98293
-1.95775
-2.016
-1.98293
-1.92566
-1.90048
-1.95775
-1.92566
-1.86938
-1.8442
-1.90048
-1.86938
-1.81409
-1.78891
-1.8442
-1.81409
-1.75978
-1.7346
-1.78891
-1.75978
-1.70647
-1.68128
-1.7346
-1.70647
-1.65414
-1.62895
-1.68128
-1.65414
-1.60279
-1.57761
-1.62895
-1.60279
-1.55244
-1.52725
-1.57761
-1.55244
-1.50307
-1.47789
-1.52725
-1.50307
-1.45469
-1.42951
-1.47789
-1.45469
-1.4073
-1.38211
-1.42951
-1.4073
-1.36089
-1.33571
-1.38211
-1.36089
-1.31548
-1.29029
-1.33571
-1.31548
-1.27105
-1.24586
-1.29029
-1.27105
-1.22761
-1.20242
-1.24586
-1.22761
-1.18515
-1.15997
-1.20242
-1.18515
-1.14369
-1.1185
-1.15997
-1.14369
-1.10321
-1.07802
-1.1185
-1.10321
-1.06372
-1.03853
-1.07802
-1.06372
-1.02521
-1.00003
-1.03853
-1.02521
-0.987699
-0.962514
-1.00003
-0.987699
-0.951171
-0.925986
-0.962514
-0.951171
-0.915631
-0.890445
-0.925986
-0.915631
-0.881078
-0.855893
-0.890445
-0.881078
-0.847513
-0.822328
-0.855893
-0.847513
-0.814936
-0.78975
-0.822328
-0.814936
-0.783346
-0.758161
-0.78975
-0.783346
-0.752744
-0.727559
-0.758161
-0.752744
-0.72313
-0.697944
-0.727559
-0.72313
-0.694503
-0.669318
-0.697944
-0.694503
-0.666864
-0.641679
-0.669318
-0.666864
-0.640212
-0.615027
-0.641679
-0.640212
-0.614549
-0.589364
-0.615027
-0.614549
-0.589873
-0.564687
-0.589364
-0.589873
-0.566184
-0.540999
-0.564687
-0.566184
-0.543483
-0.518298
-0.540999
-0.543483
-0.52177
-0.496585
-0.518298
-0.52177
-0.501045
-0.47586
-0.496585
-0.501045
-0.481307
-0.456122
-0.47586
-0.481307
-0.462557
-0.437372
-0.456122
-0.462557
-0.444794
-0.419609
-0.437372
-0.444794
-0.42802
-0.402834
-0.419609
-0.42802
-0.412232
-0.387047
-0.402834
-0.412232
-0.397433
-0.372248
-0.387047
-0.397433
-0.383621
-0.358436
-0.372248
-0.383621
-0.370797
-0.345612
-0.358436
-0.370797
-0.35896
-0.333775
-0.345612
-0.35896
-0.348111
-0.322926
-0.333775
-0.348111
-0.33825
-0.313065
-0.322926
-0.33825
-0.329376
-0.304191
-0.313065
-0.329376
-0.32149
-0.296305
-0.304191
-0.32149
-0.314592
-0.289407
-0.296305
-0.314592
-0.308682
-0.283496
-0.289407
-0.308682
-0.303759
-0.278573
-0.283496
-0.303759
-0.299823
-0.274638
-0.278573
-0.299823
-0.296875
-0.27169
-0.274638
-0.296875
-0.294915
-0.26973
-0.27169
-0.294915
-0.293943
-0.268758
-0.26973
-0.293943
-0.293958
-0.268773
-0.268758
-0.293958
-0.294961
-0.269776
-0.268773
-0.294961
-0.296952
-0.271767
-0.269776
-0.296952
-0.29993
-0.274745
-0.271767
-0.29993
-0.303896
-0.278711
-0.274745
-0.303896
-0.30885
-0.283664
-0.278711
-0.30885
-0.314791
-0.289606
-0.283664
-0.314791
-0.32172
-0.296534
-0.289606
-0.32172
-0.329636
-0.304451
-0.296534
-0.329636
-0.33854
-0.313355
-0.304451
-0.33854
-0.348432
-0.323247
-0.313355
-0.348432
-0.359312
-0.334126
-0.323247
-0.359312
-0.371179
-0.345994
-0.334126
-0.371179
-0.384034
-0.358848
-0.345994
-0.384034
-0.397876
-0.372691
-0.358848
-0.397876
-0.412706
-0.387521
-0.372691
-0.412706
-0.428524
-0.403339
-0.387521
-0.428524
-0.445329
-0.420144
-0.403339
-0.445329
-0.463122
-0.437937
-0.420144
-0.463122
-0.481903
-0.456718
-0.437937
-0.481903
-0.501671
-0.476486
-0.456718
-0.501671
-0.522427
-0.497242
-0.476486
-0.522427
-0.544171
-0.518986
-0.497242
-0.544171
-0.566902
-0.541717
-0.518986
-0.566902
-0.590621
-0.565436
-0.541717
-0.590621
-0.615328
-0.590143
-0.565436
-0.615328
-0.641022
-0.615837
-0.590143
-0.641022
-0.667704
-0.642519
-0.615837
-0.667704
-0.695374
-0.670189
-0.642519
-0.695374
-0.724031
-0.698846
-0.670189
-0.724031
-0.753676
-0.728491
-0.698846
-0.753676
-0.784309
-0.759123
-0.728491
-0.784309
-0.815929
-0.790744
-0.759123
-0.815929
-0.848537
-0.823351
-0.790744
-0.848537
-0.882132
-0.856947
-0.823351
-0.882132
-0.916715
-0.89153
-0.856947
-0.916715
-0.952286
-0.927101
-0.89153
-0.952286
-0.988845
-0.96366
-0.927101
-0.988845
-1.02639
-1.00121
-0.96366
-1.02639
-1.06492
-1.03974
-1.00121
-1.06492
-1.10445
-1.07926
-1.03974
-1.10445
-1.14496
-1.11977
-1.07926
-1.14496
-1.18645
-1.16127
-1.11977
-4.49254
-4.40169
-4.37749
-4.46834
-4.40169
-4.31183
-4.28763
-4.37749
-4.31183
-4.22295
-4.19876
-4.28763
-4.22295
-4.13507
-4.11087
-4.19876
-4.13507
-4.04817
-4.02397
-4.11087
-4.04817
-3.96226
-3.93806
-4.02397
-3.96226
-3.87734
-3.85314
-3.93806
-3.87734
-3.7934
-3.7692
-3.85314
-3.7934
-3.71045
-3.68626
-3.7692
-3.71045
-3.62849
-3.6043
-3.68626
-3.62849
-3.54752
-3.52332
-3.6043
-3.54752
-3.46754
-3.44334
-3.52332
-3.46754
-3.38854
-3.36434
-3.44334
-3.38854
-3.31053
-3.28633
-3.36434
-3.31053
-3.23351
-3.20931
-3.28633
-3.23351
-3.15747
-3.13328
-3.20931
-3.15747
-3.08243
-3.05823
-3.13328
-3.08243
-3.00837
-2.98417
-3.05823
-3.00837
-2.9353
-2.9111
-2.98417
-2.9353
-2.86321
-2.83902
-2.9111
-2.86321
-2.79212
-2.76792
-2.83902
-2.79212
-2.72201
-2.69781
-2.76792
-2.72201
-2.65289
-2.62869
-2.69781
-2.65289
-2.58476
-2.56056
-2.62869
-2.58476
-2.51761
-2.49341
-2.56056
-2.51761
-2.45145
-2.42726
-2.49341
-2.45145
-2.38628
-2.36209
-2.42726
-2.38628
-2.3221
-2.2979
-2.36209
-2.3221
-2.25891
-2.23471
-2.2979
-2.25891
-2.1967
-2.1725
-2.23471
-2.1967
-2.13548
-2.11128
-2.1725
-2.13548
-2.07525
-2.05105
-2.11128
-2.07525
-2.016
-1.99181
-2.05105
-2.016
-1.95775
-1.93355
-1.99181
-1.95775
-1.90048
-1.87628
-1.93355
-1.90048
-1.8442
-1.82
-1.87628
-1.8442
-1.78891
-1.76471
-1.82
-1.78891
-1.7346
-1.7104
-1.76471
-1.7346
-1.68128
-1.65708
-1.7104
-1.68128
-1.62895
-1.60475
-1.65708
-1.62895
-1.57761
-1.55341
-1.60475
-1.57761
-1.52725
-1.50306
-1.55341
-1.52725
-1.47789
-1.45369
-1.50306
-1.47789
-1.42951
-1.40531
-1.45369
-1.42951
-1.38211
-1.35792
-1.40531
-1.38211
-1.33571
-1.31151
-1.35792
-1.33571
-1.29029
-1.2661
-1.31151
-1.29029
-1.24586
-1.22167
-1.2661
-1.24586
-1.20242
-1.17822
-1.22167
-1.20242
-1.15997
-1.13577
-1.17822
-1.15997
-1.1185
-1.0943
-1.13577
-1.1185
-1.07802
-1.05383
-1.0943
-1.07802
-1.03853
-1.01433
-1.05383
-1.03853
-1.00003
-0.975832
-1.01433
-1.00003
-0.962514
-0.938316
-0.975832
-0.962514
-0.925986
-0.901788
-0.938316
-0.925986
-0.890445
-0.866248
-0.901788
-0.890445
-0.855893
-0.831695
-0.866248
-0.855893
-0.822328
-0.79813
-0.831695
-0.822328
-0.78975
-0.765553
-0.79813
-0.78975
-0.758161
-0.733963
-0.765553
-0.758161
-0.727559
-0.703361
-0.733963
-0.727559
-0.697944
-0.673747
-0.703361
-0.697944
-0.669318
-0.64512
-0.673747
-0.669318
-0.641679
-0.617481
-0.64512
-0.641679
-0.615027
-0.59083
-0.617481
-0.615027
-0.589364
-0.565166
-0.59083
-0.589364
-0.564687
-0.54049
-0.565166
-0.564687
-0.540999
-0.516802
-0.54049
-0.540999
-0.518298
-0.494101
-0.516802
-0.518298
-0.496585
-0.472388
-0.494101
-0.496585
-0.47586
-0.451662
-0.472388
-0.47586
-0.456122
-0.431924
-0.451662
-0.456122
-0.437372
-0.413174
-0.431924
-0.437372
-0.419609
-0.395412
-0.413174
-0.419609
-0.402834
-0.378637
-0.395412
-0.402834
-0.387047
-0.36285
-0.378637
-0.387047
-0.372248
-0.34805
-0.36285
-0.372248
-0.358436
-0.334238
-0.34805
-0.358436
-0.345612
-0.321414
-0.334238
-0.345612
-0.333775
-0.309577
-0.321414
-0.333775
-0.322926
-0.298729
-0.309577
-0.322926
-0.313065
-0.288867
-0.298729
-0.313065
-0.304191
-0.279994
-0.288867
-0.304191
-0.296305
-0.272108
-0.279994
-0.296305
-0.289407
-0.265209
-0.272108
-0.289407
-0.283496
-0.259299
-0.265209
-0.283496
-0.278573
-0.254376
-0.259299
-0.278573
-0.274638
-0.25044
-0.254376
-0.274638
-0.27169
-0.247493
-0.25044
-0.27169
-0.26973
-0.245533
-0.247493
-0.26973
-0.268758
-0.24456
-0.245533
-0.268758
-0.268773
-0.244576
-0.24456
-0.268773
-0.269776
-0.245579
-0.244576
-0.269776
-0.271767
-0.247569
-0.245579
-0.271767
-0.274745
-0.250547
-0.247569
-0.274745
-0.278711
-0.254513
-0.250547
-0.278711
-0.283664
-0.259467
-0.254513
-0.283664
-0.289606
-0.265408
-0.259467
-0.289606
-0.296534
-0.272337
-0.265408
-0.296534
-0.304451
-0.280253
-0.272337
-0.304451
-0.313355
-0.289158
-0.280253
-0.313355
-0.323247
-0.299049
-0.289158
-0.323247
-0.334126
-0.309929
-0.299049
-0.334126
-0.345994
-0.321796
-0.309929
-0.345994
-0.358848
-0.334651
-0.321796
-0.358848
-0.372691
-0.348493
-0.334651
-0.372691
-0.387521
-0.363323
-0.348493
-0.387521
-0.403339
-0.379141
-0.363323
-0.403339
-0.420144
-0.395947
-0.379141
-0.420144
-0.437937
-0.41374
-0.395947
-0.437937
-0.456718
-0.43252
-0.41374
-0.456718
-0.476486
-0.452289
-0.43252
-0.476486
-0.497242
-0.473045
-0.452289
-0.497242
-0.518986
-0.494788
-0.473045
-0.518986
-0.541717
-0.51752
-0.494788
-0.541717
-0.565436
-0.541239
-0.51752
-0.565436
-0.590143
-0.565945
-0.541239
-0.590143
-0.615837
-0.59164
-0.565945
-0.615837
-0.642519
-0.618322
-0.59164
-0.642519
-0.670189
-0.645991
-0.618322
-0.670189
-0.698846
-0.674648
-0.645991
-0.698846
-0.728491
-0.704293
-0.674648
-0.728491
-0.759123
-0.734926
-0.704293
-0.759123
-0.790744
-0.766546
-0.734926
-0.790744
-0.823351
-0.799154
-0.766546
-0.823351
-0.856947
-0.832749
-0.799154
-0.856947
-0.89153
-0.867333
-0.832749
-0.89153
-0.927101
-0.902904
-0.867333
-0.927101
-0.96366
-0.939462
-0.902904
-0.96366
-1.00121
-0.977008
-0.939462
-1.00121
-1.03974
-1.01554
-0.977008
-1.03974
-1.07926
-1.05506
-1.01554
-1.07926
-1.11977
-1.09557
-1.05506
-1.11977
-1.16127
-1.13707
-1.09557
-4.46834
-4.37749
-4.35428
-4.44513
-4.37749
-4.28763
-4.26442
-4.35428
-4.28763
-4.19876
-4.17555
-4.26442
-4.19876
-4.11087
-4.08766
-4.17555
-4.11087
-4.02397
-4.00076
-4.08766
-4.02397
-3.93806
-3.91485
-4.00076
-3.93806
-3.85314
-3.82993
-3.91485
-3.85314
-3.7692
-3.74599
-3.82993
-3.7692
-3.68626
-3.66305
-3.74599
-3.68626
-3.6043
-3.58109
-3.66305
-3.6043
-3.52332
-3.50011
-3.58109
-3.52332
-3.44334
-3.42013
-3.50011
-3.44334
-3.36434
-3.34113
-3.42013
-3.36434
-3.28633
-3.26312
-3.34113
-3.28633
-3.20931
-3.1861
-3.26312
-3.20931
-3.13328
-3.11007
-3.1861
-3.13328
-3.05823
-3.03502
-3.11007
-3.05823
-2.98417
-2.96096
-3.03502
-2.98417
-2.9111
-2.88789
-2.96096
-2.9111
-2.83902
-2.81581
-2.88789
-2.83902
-2.76792
-2.74471
-2.81581
-2.76792
-2.69781
-2.6746
-2.74471
-2.69781
-2.62869
-2.60548
-2.6746
-2.62869
-2.56056
-2.53735
-2.60548
-2.56056
-2.49341
-2.4702
-2.53735
-2.49341
-2.42726
-2.40405
-2.4702
-2.42726
-2.36209
-2.33888
-2.40405
-2.36209
-2.2979
-2.27469
-2.33888
-2.2979
-2.23471
-2.2115
-2.27469
-2.23471
-2.1725
-2.14929
-2.2115
-2.1725
-2.11128
-2.08807
-2.14929
-2.11128
-2.05105
-2.02784
-2.08807
-2.05105
-1.99181
-1.9686
-2.02784
-1.99181
-1.93355
-1.91034
-1.9686
-1.93355
-1.87628
-1.85307
-1.91034
-1.87628
-1.82
-1.79679
-1.85307
-1.82
-1.76471
-1.7415
-1.79679
-1.76471
-1.7104
-1.68719
-1.7415
-1.7104
-1.65708
-1.63387
-1.68719
-1.65708
-1.60475
-1.58154
-1.63387
-1.60475
-1.55341
-1.5302
-1.58154
-1.55341
-1.50306
-1.47985
-1.5302
-1.50306
-1.45369
-1.43048
-1.47985
-1.45369
-1.40531
-1.3821
-1.43048
-1.40531
-1.35792
-1.33471
-1.3821
-1.35792
-1.31151
-1.2883
-1.33471
-1.31151
-1.2661
-1.24289
-1.2883
-1.2661
-1.22167
-1.19846
-1.24289
-1.22167
-1.17822
-1.15501
-1.19846
-1.17822
-1.13577
-1.11256
-1.15501
-1.13577
-1.0943
-1.07109
-1.11256
-1.0943
-1.05383
-1.03062
-1.07109
-1.05383
-1.01433
-0.991125
-1.03062
-1.01433
-0.975832
-0.952622
-0.991125
-0.975832
-0.938316
-0.915106
-0.952622
-0.938316
-0.901788
-0.878578
-0.915106
-0.901788
-0.866248
-0.843038
-0.878578
-0.866248
-0.831695
-0.808485
-0.843038
-0.831695
-0.79813
-0.77492
-0.808485
-0.79813
-0.765553
-0.742343
-0.77492
-0.765553
-0.733963
-0.710753
-0.742343
-0.733963
-0.703361
-0.680151
-0.710753
-0.703361
-0.673747
-0.650537
-0.680151
-0.673747
-0.64512
-0.62191
-0.650537
-0.64512
-0.617481
-0.594271
-0.62191
-0.617481
-0.59083
-0.56762
-0.594271
-0.59083
-0.565166
-0.541956
-0.56762
-0.565166
-0.54049
-0.51728
-0.541956
-0.54049
-0.516802
-0.493592
-0.51728
-0.516802
-0.494101
-0.470891
-0.493592
-0.494101
-0.472388
-0.449178
-0.470891
-0.472388
-0.451662
-0.428452
-0.449178
-0.451662
-0.431924
-0.408715
-0.428452
-0.431924
-0.413174
-0.389964
-0.408715
-0.413174
-0.395412
-0.372202
-0.389964
-0.395412
-0.378637
-0.355427
-0.372202
-0.378637
-0.36285
-0.33964
-0.355427
-0.36285
-0.34805
-0.32484
-0.33964
-0.34805
-0.334238
-0.311028
-0.32484
-0.334238
-0.321414
-0.298204
-0.311028
-0.321414
-0.309577
-0.286368
-0.298204
-0.309577
-0.298729
-0.275519
-0.286368
-0.298729
-0.288867
-0.265657
-0.275519
-0.288867
-0.279994
-0.256784
-0.265657
-0.279994
-0.272108
-0.248898
-0.256784
-0.272108
-0.265209
-0.242
-0.248898
-0.265209
-0.259299
-0.236089
-0.242
-0.259299
-0.254376
-0.231166
-0.236089
-0.254376
-0.25044
-0.227231
-0.231166
-0.25044
-0.247493
-0.224283
-0.227231
-0.247493
-0.245533
-0.222323
-0.224283
-0.245533
-0.24456
-0.221351
-0.222323
-0.24456
-0.244576
-0.221366
-0.221351
-0.244576
-0.245579
-0.222369
-0.221366
-0.245579
-0.247569
-0.224359
-0.222369
-0.247569
-0.250547
-0.227338
-0.224359
-0.250547
-0.254513
-0.231303
-0.227338
-0.254513
-0.259467
-0.236257
-0.231303
-0.259467
-0.265408
-0.242198
-0.236257
-0.265408
-0.272337
-0.249127
-0.242198
-0.272337
-0.280253
-0.257044
-0.249127
-0.280253
-0.289158
-0.265948
-0.257044
-0.289158
-0.299049
-0.27584
-0.265948
-0.299049
-0.309929
-0.286719
-0.27584
-0.309929
-0.321796
-0.298586
-0.286719
-0.321796
-0.334651
-0.311441
-0.298586
-0.334651
-0.348493
-0.325283
-0.311441
-0.348493
-0.363323
-0.340113
-0.325283
-0.363323
-0.379141
-0.355931
-0.340113
-0.379141
-0.395947
-0.372737
-0.355931
-0.395947
-0.41374
-0.39053
-0.372737
-0.41374
-0.43252
-0.40931
-0.39053
-0.43252
-0.452289
-0.429079
-0.40931
-0.452289
-0.473045
-0.449835
-0.429079
-0.473045
-0.494788
-0.471578
-0.449835
-0.494788
-0.51752
-0.49431
-0.471578
-0.51752
-0.541239
-0.518029
-0.49431
-0.541239
-0.565945
-0.542735
-0.518029
-0.565945
-0.59164
-0.56843
-0.542735
-0.59164
-0.618322
-0.595112
-0.56843
-0.618322
-0.645991
-0.622781
-0.595112
-0.645991
-0.674648
-0.651439
-0.622781
-0.674648
-0.704293
-0.681083
-0.651439