# vtk DataFile Version 1.0
unstructured Grid
ASCII
DATASET UNSTRUCTURED_GRID
POINTS 23448 float 
0 0	 0.0
0.0222222 0	 0.0
0.0222222 0.0222222	 0.0
0 0.0222222	 0.0
0.0222222 0	 0.0
0.0444444 0	 0.0
0.0444444 0.0222222	 0.0
0.0222222 0.0222222	 0.0
0.0444444 0	 0.0
0.0666667 0	 0.0
0.0666667 0.0222222	 0.0
0.0444444 0.0222222	 0.0
0.0666667 0	 0.0
0.0888889 0	 0.0
0.0888889 0.0222222	 0.0
0.0666667 0.0222222	 0.0
0.0888889 0	 0.0
0.111111 0	 0.0
0.111111 0.0222222	 0.0
0.0888889 0.0222222	 0.0
0.111111 0	 0.0
0.133333 0	 0.0
0.133333 0.0222222	 0.0
0.111111 0.0222222	 0.0
0.133333 0	 0.0
0.155556 0	 0.0
0.155556 0.0222222	 0.0
0.133333 0.0222222	 0.0
0.155556 0	 0.0
0.177778 0	 0.0
0.177778 0.0222222	 0.0
0.155556 0.0222222	 0.0
0.177778 0	 0.0
0.2 0	 0.0
0.2 0.0222222	 0.0
0.177778 0.0222222	 0.0
0.2 0	 0.0
0.222222 0	 0.0
0.222222 0.0222222	 0.0
0.2 0.0222222	 0.0
0.222222 0	 0.0
0.244444 0	 0.0
0.244444 0.0222222	 0.0
0.222222 0.0222222	 0.0
0.244444 0	 0.0
0.266667 0	 0.0
0.266667 0.0222222	 0.0
0.244444 0.0222222	 0.0
0.266667 0	 0.0
0.288889 0	 0.0
0.288889 0.0222222	 0.0
0.266667 0.0222222	 0.0
0.288889 0	 0.0
0.311111 0	 0.0
0.311111 0.0222222	 0.0
0.288889 0.0222222	 0.0
0.311111 0	 0.0
0.333333 0	 0.0
0.333333 0.0222222	 0.0
0.311111 0.0222222	 0.0
0.333333 0	 0.0
0.355556 0	 0.0
0.355556 0.0222222	 0.0
0.333333 0.0222222	 0.0
0.355556 0	 0.0
0.377778 0	 0.0
0.377778 0.0222222	 0.0
0.355556 0.0222222	 0.0
0.377778 0	 0.0
0.4 0	 0.0
0.4 0.0222222	 0.0
0.377778 0.0222222	 0.0
0.4 0	 0.0
0.422222 0	 0.0
0.422222 0.0222222	 0.0
0.4 0.0222222	 0.0
0.422222 0	 0.0
0.444444 0	 0.0
0.444444 0.0222222	 0.0
0.422222 0.0222222	 0.0
0.444444 0	 0.0
0.466667 0	 0.0
0.466667 0.0222222	 0.0
0.444444 0.0222222	 0.0
0.466667 0	 0.0
0.488889 0	 0.0
0.488889 0.0222222	 0.0
0.466667 0.0222222	 0.0
0.488889 0	 0.0
0.511111 0	 0.0
0.511111 0.0222222	 0.0
0.488889 0.0222222	 0.0
0.511111 0	 0.0
0.533333 0	 0.0
0.533333 0.0222222	 0.0
0.511111 0.0222222	 0.0
0.533333 0	 0.0
0.555556 0	 0.0
0.555556 0.0222222	 0.0
0.533333 0.0222222	 0.0
0.555556 0	 0.0
0.577778 0	 0.0
0.577778 0.0222222	 0.0
0.555556 0.0222222	 0.0
0.577778 0	 0.0
0.6 0	 0.0
0.6 0.0222222	 0.0
0.577778 0.0222222	 0.0
0.6 0	 0.0
0.622222 0	 0.0
0.622222 0.0222222	 0.0
0.6 0.0222222	 0.0
0.622222 0	 0.0
0.644444 0	 0.0
0.644444 0.0222222	 0.0
0.622222 0.0222222	 0.0
0.644444 0	 0.0
0.666667 0	 0.0
0.666667 0.0222222	 0.0
0.644444 0.0222222	 0.0
0.666667 0	 0.0
0.688889 0	 0.0
0.688889 0.0222222	 0.0
0.666667 0.0222222	 0.0
0.688889 0	 0.0
0.711111 0	 0.0
0.711111 0.0222222	 0.0
0.688889 0.0222222	 0.0
0.711111 0	 0.0
0.733333 0	 0.0
0.733333 0.0222222	 0.0
0.711111 0.0222222	 0.0
0.733333 0	 0.0
0.755556 0	 0.0
0.755556 0.0222222	 0.0
0.733333 0.0222222	 0.0
0.755556 0	 0.0
0.777778 0	 0.0
0.777778 0.0222222	 0.0
0.755556 0.0222222	 0.0
0.777778 0	 0.0
0.8 0	 0.0
0.8 0.0222222	 0.0
0.777778 0.0222222	 0.0
0.8 0	 0.0
0.822222 0	 0.0
0.822222 0.0222222	 0.0
0.8 0.0222222	 0.0
0.822222 0	 0.0
0.844444 0	 0.0
0.844444 0.0222222	 0.0
0.822222 0.0222222	 0.0
0.844444 0	 0.0
0.866667 0	 0.0
0.866667 0.0222222	 0.0
0.844444 0.0222222	 0.0
0.866667 0	 0.0
0.888889 0	 0.0
0.888889 0.0222222	 0.0
0.866667 0.0222222	 0.0
0.888889 0	 0.0
0.911111 0	 0.0
0.911111 0.0222222	 0.0
0.888889 0.0222222	 0.0
0.911111 0	 0.0
0.933333 0	 0.0
0.933333 0.0222222	 0.0
0.911111 0.0222222	 0.0
0.933333 0	 0.0
0.955556 0	 0.0
0.955556 0.0222222	 0.0
0.933333 0.0222222	 0.0
0.955556 0	 0.0
0.977778 0	 0.0
0.977778 0.0222222	 0.0
0.955556 0.0222222	 0.0
0.977778 0	 0.0
1 0	 0.0
1 0.0222222	 0.0
0.977778 0.0222222	 0.0
1 0	 0.0
1.02222 0	 0.0
1.02222 0.0222222	 0.0
1 0.0222222	 0.0
1.02222 0	 0.0
1.04444 0	 0.0
1.04444 0.0222222	 0.0
1.02222 0.0222222	 0.0
1.04444 0	 0.0
1.06667 0	 0.0
1.06667 0.0222222	 0.0
1.04444 0.0222222	 0.0
1.06667 0	 0.0
1.08889 0	 0.0
1.08889 0.0222222	 0.0
1.06667 0.0222222	 0.0
1.08889 0	 0.0
1.11111 0	 0.0
1.11111 0.0222222	 0.0
1.08889 0.0222222	 0.0
1.11111 0	 0.0
1.13333 0	 0.0
1.13333 0.0222222	 0.0
1.11111 0.0222222	 0.0
1.13333 0	 0.0
1.15556 0	 0.0
1.15556 0.0222222	 0.0
1.13333 0.0222222	 0.0
1.15556 0	 0.0
1.17778 0	 0.0
1.17778 0.0222222	 0.0
1.15556 0.0222222	 0.0
1.17778 0	 0.0
1.2 0	 0.0
1.2 0.0222222	 0.0
1.17778 0.0222222	 0.0
1.2 0	 0.0
1.22222 0	 0.0
1.22222 0.0222222	 0.0
1.2 0.0222222	 0.0
1.22222 0	 0.0
1.24444 0	 0.0
1.24444 0.0222222	 0.0
1.22222 0.0222222	 0.0
1.24444 0	 0.0
1.26667 0	 0.0
1.26667 0.0222222	 0.0
1.24444 0.0222222	 0.0
1.26667 0	 0.0
1.28889 0	 0.0
1.28889 0.0222222	 0.0
1.26667 0.0222222	 0.0
1.28889 0	 0.0
1.31111 0	 0.0
1.31111 0.0222222	 0.0
1.28889 0.0222222	 0.0
1.31111 0	 0.0
1.33333 0	 0.0
1.33333 0.0222222	 0.0
1.31111 0.0222222	 0.0
1.33333 0	 0.0
1.35556 0	 0.0
1.35556 0.0222222	 0.0
1.33333 0.0222222	 0.0
1.35556 0	 0.0
1.37778 0	 0.0
1.37778 0.0222222	 0.0
1.35556 0.0222222	 0.0
1.37778 0	 0.0
1.4 0	 0.0
1.4 0.0222222	 0.0
1.37778 0.0222222	 0.0
1.4 0	 0.0
1.42222 0	 0.0
1.42222 0.0222222	 0.0
1.4 0.0222222	 0.0
1.42222 0	 0.0
1.44444 0	 0.0
1.44444 0.0222222	 0.0
1.42222 0.0222222	 0.0
1.44444 0	 0.0
1.46667 0	 0.0
1.46667 0.0222222	 0.0
1.44444 0.0222222	 0.0
1.46667 0	 0.0
1.48889 0	 0.0
1.48889 0.0222222	 0.0
1.46667 0.0222222	 0.0
1.48889 0	 0.0
1.51111 0	 0.0
1.51111 0.0222222	 0.0
1.48889 0.0222222	 0.0
1.51111 0	 0.0
1.53333 0	 0.0
1.53333 0.0222222	 0.0
1.51111 0.0222222	 0.0
1.53333 0	 0.0
1.55556 0	 0.0
1.55556 0.0222222	 0.0
1.53333 0.0222222	 0.0
1.55556 0	 0.0
1.57778 0	 0.0
1.57778 0.0222222	 0.0
1.55556 0.0222222	 0.0
1.57778 0	 0.0
1.6 0	 0.0
1.6 0.0222222	 0.0
1.57778 0.0222222	 0.0
1.6 0	 0.0
1.62222 0	 0.0
1.62222 0.0222222	 0.0
1.6 0.0222222	 0.0
1.62222 0	 0.0
1.64444 0	 0.0
1.64444 0.0222222	 0.0
1.62222 0.0222222	 0.0
1.64444 0	 0.0
1.66667 0	 0.0
1.66667 0.0222222	 0.0
1.64444 0.0222222	 0.0
1.66667 0	 0.0
1.68889 0	 0.0
1.68889 0.0222222	 0.0
1.66667 0.0222222	 0.0
1.68889 0	 0.0
1.71111 0	 0.0
1.71111 0.0222222	 0.0
1.68889 0.0222222	 0.0
1.71111 0	 0.0
1.73333 0	 0.0
1.73333 0.0222222	 0.0
1.71111 0.0222222	 0.0
1.73333 0	 0.0
1.75556 0	 0.0
1.75556 0.0222222	 0.0
1.73333 0.0222222	 0.0
1.75556 0	 0.0
1.77778 0	 0.0
1.77778 0.0222222	 0.0
1.75556 0.0222222	 0.0
1.77778 0	 0.0
1.8 0	 0.0
1.8 0.0222222	 0.0
1.77778 0.0222222	 0.0
1.8 0	 0.0
1.82222 0	 0.0
1.82222 0.0222222	 0.0
1.8 0.0222222	 0.0
1.82222 0	 0.0
1.84444 0	 0.0
1.84444 0.0222222	 0.0
1.82222 0.0222222	 0.0
1.84444 0	 0.0
1.86667 0	 0.0
1.86667 0.0222222	 0.0
1.84444 0.0222222	 0.0
1.86667 0	 0.0
1.88889 0	 0.0
1.88889 0.0222222	 0.0
1.86667 0.0222222	 0.0
1.88889 0	 0.0
1.91111 0	 0.0
1.91111 0.0222222	 0.0
1.88889 0.0222222	 0.0
1.91111 0	 0.0
1.93333 0	 0.0
1.93333 0.0222222	 0.0
1.91111 0.0222222	 0.0
1.93333 0	 0.0
1.95556 0	 0.0
1.95556 0.0222222	 0.0
1.93333 0.0222222	 0.0
1.95556 0	 0.0
1.97778 0	 0.0
1.97778 0.0222222	 0.0
1.95556 0.0222222	 0.0
1.97778 0	 0.0
2 0	 0.0
2 0.0222222	 0.0
1.97778 0.0222222	 0.0
2 0	 0.0
2.02222 0	 0.0
2.02222 0.0222222	 0.0
2 0.0222222	 0.0
2.02222 0	 0.0
2.04444 0	 0.0
2.04444 0.0222222	 0.0
2.02222 0.0222222	 0.0
2.04444 0	 0.0
2.06667 0	 0.0
2.06667 0.0222222	 0.0
2.04444 0.0222222	 0.0
2.06667 0	 0.0
2.08889 0	 0.0
2.08889 0.0222222	 0.0
2.06667 0.0222222	 0.0
2.08889 0	 0.0
2.11111 0	 0.0
2.11111 0.0222222	 0.0
2.08889 0.0222222	 0.0
2.11111 0	 0.0
2.13333 0	 0.0
2.13333 0.0222222	 0.0
2.11111 0.0222222	 0.0
2.13333 0	 0.0
2.15556 0	 0.0
2.15556 0.0222222	 0.0
2.13333 0.0222222	 0.0
2.15556 0	 0.0
2.17778 0	 0.0
2.17778 0.0222222	 0.0
2.15556 0.0222222	 0.0
2.17778 0	 0.0
2.2 0	 0.0
2.2 0.0222222	 0.0
2.17778 0.0222222	 0.0
2.2 0	 0.0
2.22222 0	 0.0
2.22222 0.0222222	 0.0
2.2 0.0222222	 0.0
2.22222 0	 0.0
2.24444 0	 0.0
2.24444 0.0222222	 0.0
2.22222 0.0222222	 0.0
2.24444 0	 0.0
2.26667 0	 0.0
2.26667 0.0222222	 0.0
2.24444 0.0222222	 0.0
2.26667 0	 0.0
2.28889 0	 0.0
2.28889 0.0222222	 0.0
2.26667 0.0222222	 0.0
2.28889 0	 0.0
2.31111 0	 0.0
2.31111 0.0222222	 0.0
2.28889 0.0222222	 0.0
2.31111 0	 0.0
2.33333 0	 0.0
2.33333 0.0222222	 0.0
2.31111 0.0222222	 0.0
2.33333 0	 0.0
2.35556 0	 0.0
2.35556 0.0222222	 0.0
2.33333 0.0222222	 0.0
2.35556 0	 0.0
2.37778 0	 0.0
2.37778 0.0222222	 0.0
2.35556 0.0222222	 0.0
2.37778 0	 0.0
2.4 0	 0.0
2.4 0.0222222	 0.0
2.37778 0.0222222	 0.0
2.4 0	 0.0
2.42222 0	 0.0
2.42222 0.0222222	 0.0
2.4 0.0222222	 0.0
2.42222 0	 0.0
2.44444 0	 0.0
2.44444 0.0222222	 0.0
2.42222 0.0222222	 0.0
2.44444 0	 0.0
2.46667 0	 0.0
2.46667 0.0222222	 0.0
2.44444 0.0222222	 0.0
2.46667 0	 0.0
2.48889 0	 0.0
2.48889 0.0222222	 0.0
2.46667 0.0222222	 0.0
2.48889 0	 0.0
2.51111 0	 0.0
2.51111 0.0222222	 0.0
2.48889 0.0222222	 0.0
2.51111 0	 0.0
2.53333 0	 0.0
2.53333 0.0222222	 0.0
2.51111 0.0222222	 0.0
2.53333 0	 0.0
2.55556 0	 0.0
2.55556 0.0222222	 0.0
2.53333 0.0222222	 0.0
2.55556 0	 0.0
2.57778 0	 0.0
2.57778 0.0222222	 0.0
2.55556 0.0222222	 0.0
2.57778 0	 0.0
2.6 0	 0.0
2.6 0.0222222	 0.0
2.57778 0.0222222	 0.0
2.6 0	 0.0
2.62222 0	 0.0
2.62222 0.0222222	 0.0
2.6 0.0222222	 0.0
2.62222 0	 0.0
2.64444 0	 0.0
2.64444 0.0222222	 0.0
2.62222 0.0222222	 0.0
2.64444 0	 0.0
2.66667 0	 0.0
2.66667 0.0222222	 0.0
2.64444 0.0222222	 0.0
2.66667 0	 0.0
2.68889 0	 0.0
2.68889 0.0222222	 0.0
2.66667 0.0222222	 0.0
2.68889 0	 0.0
2.71111 0	 0.0
2.71111 0.0222222	 0.0
2.68889 0.0222222	 0.0
2.71111 0	 0.0
2.73333 0	 0.0
2.73333 0.0222222	 0.0
2.71111 0.0222222	 0.0
2.73333 0	 0.0
2.75556 0	 0.0
2.75556 0.0222222	 0.0
2.73333 0.0222222	 0.0
2.75556 0	 0.0
2.77778 0	 0.0
2.77778 0.0222222	 0.0
2.75556 0.0222222	 0.0
2.77778 0	 0.0
2.8 0	 0.0
2.8 0.0222222	 0.0
2.77778 0.0222222	 0.0
2.8 0	 0.0
2.82222 0	 0.0
2.82222 0.0222222	 0.0
2.8 0.0222222	 0.0
2.82222 0	 0.0
2.84444 0	 0.0
2.84444 0.0222222	 0.0
2.82222 0.0222222	 0.0
2.84444 0	 0.0
2.86667 0	 0.0
2.86667 0.0222222	 0.0
2.84444 0.0222222	 0.0
2.86667 0	 0.0
2.88889 0	 0.0
2.88889 0.0222222	 0.0
2.86667 0.0222222	 0.0
2.88889 0	 0.0
2.91111 0	 0.0
2.91111 0.0222222	 0.0
2.88889 0.0222222	 0.0
2.91111 0	 0.0
[...]
POINT_DATA 23448
SCALARS levelset_first float
LOOKUP_TABLE default
-3.60693
-3.52685
-3.50068
-3.58076
-3.52685
-3.44776
-3.42158
-3.50068
-3.44776
-3.36965
-3.34347
-3.42158
-3.36965
-3.29253
-3.26635
-3.34347
-3.29253
-3.21639
-3.19022
-3.26635
-3.21639
-3.14125
-3.11508
-3.19022
-3.14125
-3.06709
-3.04092
-3.11508
-3.06709
-2.99392
-2.96775
-3.04092
-2.99392
-2.92174
-2.89557
-2.96775
-2.92174
-2.85054
-2.82437
-2.89557
-2.85054
-2.78034
-2.75416
-2.82437
-2.78034
-2.71112
-2.68494
-2.75416
-2.71112
-2.64289
-2.61671
-2.68494
-2.64289
-2.57564
-2.54947
-2.61671
-2.57564
-2.50939
-2.48321
-2.54947
-2.50939
-2.44412
-2.41794
-2.48321
-2.44412
-2.37984
-2.35366
-2.41794
-2.37984
-2.31654
-2.29037
-2.35366
-2.31654
-2.25424
-2.22806
-2.29037
-2.25424
-2.19292
-2.16675
-2.22806
-2.19292
-2.13259
-2.10642
-2.16675
-2.13259
-2.07325
-2.04707
-2.10642
-2.07325
-2.01489
-1.98872
-2.04707
-2.01489
-1.95752
-1.93135
-1.98872
-1.95752
-1.90114
-1.87497
-1.93135
-1.90114
-1.84575
-1.81958
-1.87497
-1.84575
-1.79135
-1.76517
-1.81958
-1.79135
-1.73793
-1.71176
-1.76517
-1.73793
-1.6855
-1.65933
-1.71176
-1.6855
-1.63406
-1.60789
-1.65933
-1.63406
-1.5836
-1.55743
-1.60789
-1.5836
-1.53414
-1.50797
-1.55743
-1.53414
-1.48566
-1.45949
-1.50797
-1.48566
-1.43817
-1.412
-1.45949
-1.43817
-1.39167
-1.36549
-1.412
-1.39167
-1.34615
-1.31998
-1.36549
-1.34615
-1.30162
-1.27545
-1.31998
-1.30162
-1.25808
-1.23191
-1.27545
-1.25808
-1.21553
-1.18936
-1.23191
-1.21553
-1.17396
-1.14779
-1.18936
-1.17396
-1.13339
-1.10721
-1.14779
-1.13339
-1.0938
-1.06762
-1.10721
-1.0938
-1.05519
-1.02902
-1.06762
-1.05519
-1.01758
-0.991407
-1.02902
-1.01758
-0.980954
-0.954781
-0.991407
-0.980954
-0.945315
-0.919142
-0.954781
-0.945315
-0.910663
-0.88449
-0.919142
-0.910663
-0.876999
-0.850826
-0.88449
-0.876999
-0.844323
-0.81815
-0.850826
-0.844323
-0.812635
-0.786462
-0.81815
-0.812635
-0.781934
-0.755761
-0.786462
-0.781934
-0.752221
-0.726048
-0.755761
-0.752221
-0.723495
-0.697322
-0.726048
-0.723495
-0.695757
-0.669585
-0.697322
-0.695757
-0.669007
-0.642834
-0.669585
-0.669007
-0.643245
-0.617072
-0.642834
-0.643245
-0.61847
-0.592297
-0.617072
-0.61847
-0.594683
-0.56851
-0.592297
-0.594683
-0.571883
-0.54571
-0.56851
-0.571883
-0.550071
-0.523898
-0.54571
-0.550071
-0.529247
-0.503074
-0.523898
-0.529247
-0.50941
-0.483237
-0.503074
-0.50941
-0.490561
-0.464388
-0.483237
-0.490561
-0.4727
-0.446527
-0.464388
-0.4727
-0.455826
-0.429653
-0.446527
-0.455826
-0.43994
-0.413767
-0.429653
-0.43994
-0.425042
-0.398869
-0.413767
-0.425042
-0.411131
-0.384958
-0.398869
-0.411131
-0.398208
-0.372035
-0.384958
-0.398208
-0.386273
-0.3601
-0.372035
-0.386273
-0.375325
-0.349152
-0.3601
-0.375325
-0.365365
-0.339192
-0.349152
-0.365365
-0.356393
-0.33022
-0.339192
-0.356393
-0.348408
-0.322235
-0.33022
-0.348408
-0.341411
-0.315238
-0.322235
-0.341411
-0.335401
-0.309228
-0.315238
-0.335401
-0.330379
-0.304207
-0.309228
-0.330379
-0.326345
-0.300172
-0.304207
-0.326345
-0.323299
-0.297126
-0.300172
-0.323299
-0.32124
-0.295067
-0.297126
-0.32124
-0.320169
-0.293996
-0.295067
-0.320169
-0.320085
-0.293912
-0.293996
-0.320085
-0.320989
-0.294817
-0.293912
-0.320989
-0.322881
-0.296708
-0.294817
-0.322881
-0.325761
-0.299588
-0.296708
-0.325761
-0.329628
-0.303455
-0.299588
-0.329628
-0.334482
-0.30831
-0.303455
-0.334482
-0.340325
-0.314152
-0.30831
-0.340325
-0.347155
-0.320982
-0.314152
-0.347155
-0.354973
-0.3288
-0.320982
-0.354973
-0.363778
-0.337605
-0.3288
-0.363778
-0.373571
-0.347398
-0.337605
-0.373571
-0.384352
-0.358179
-0.347398
-0.384352
-0.39612
-0.369947
-0.358179
-0.39612
-0.408876
-0.382703
-0.369947
-0.408876
-0.42262
-0.396447
-0.382703
-0.42262
-0.437351
-0.411178
-0.396447
-0.437351
-0.45307
-0.426897
-0.411178
-0.45307
-0.469776
-0.443603
-0.426897
-0.469776
-0.487471
-0.461298
-0.443603
-0.487471
-0.506152
-0.47998
-0.461298
-0.506152
-0.525822
-0.499649
-0.47998
-0.525822
-0.546479
-0.520306
-0.499649
-0.546479
-0.568124
-0.541951
-0.520306
-0.568124
-0.590757
-0.564584
-0.541951
-0.590757
-0.614377
-0.588204
-0.564584
-0.614377
-0.638985
-0.612812
-0.588204
-0.638985
-0.66458
-0.638407
-0.612812
-0.66458
-0.691163
-0.66499
-0.638407
-0.691163
-0.718734
-0.692561
-0.66499
-0.718734
-0.747293
-0.72112
-0.692561
-0.747293
-0.776839
-0.750666
-0.72112
-0.776839
-0.807372
-0.7812
-0.750666
-0.807372
-0.838894
-0.812721
-0.7812
-0.838894
-0.871403
-0.84523
-0.812721
-0.871403
-0.9049
-0.878727
-0.84523
-0.9049
-0.939384
-0.913211
-0.878727
-0.939384
-0.974856
-0.948683
-0.913211
-0.974856
-1.01132
-0.985143
-0.948683
-1.01132
-1.04876
-1.02259
-0.985143
-1.04876
-1.0872
-1.06103
-1.02259
-1.0872
-1.12662
-1.10045
-1.06103
-1.12662
-1.16703
-1.14086
-1.10045
-1.16703
-1.20843
-1.18226
-1.14086
-1.20843
-1.25081
-1.22464
-1.18226
-1.25081
-1.29419
-1.26801
-1.22464
-1.29419
-1.33855
-1.31238
-1.26801
-1.33855
-1.3839
-1.35772
-1.31238
-1.3839
-1.43023
-1.40406
-1.35772
-1.43023
-1.47756
-1.45138
-1.40406
-1.47756
-1.52587
-1.4997
-1.45138
-1.52587
-1.57517
-1.549
-1.4997
-1.57517
-1.62545
-1.59928
-1.549
-1.62545
-1.67673
-1.65056
-1.59928
-1.67673
-1.72899
-1.70282
-1.65056
-3.58076
-3.50068
-3.47549
-3.55558
-3.50068
-3.42158
-3.3964
-3.47549
-3.42158
-3.34347
-3.31829
-3.3964
-3.34347
-3.26635
-3.24117
-3.31829
-3.26635
-3.19022
-3.16504
-3.24117
-3.19022
-3.11508
-3.08989
-3.16504
-3.11508
-3.04092
-3.01573
-3.08989
-3.04092
-2.96775
-2.94256
-3.01573
-2.96775
-2.89557
-2.87038
-2.94256
-2.89557
-2.82437
-2.79919
-2.87038
-2.82437
-2.75416
-2.72898
-2.79919
-2.75416
-2.68494
-2.65976
-2.72898
-2.68494
-2.61671
-2.59153
-2.65976
-2.61671
-2.54947
-2.52428
-2.59153
-2.54947
-2.48321
-2.45803
-2.52428
-2.48321
-2.41794
-2.39276
-2.45803
-2.41794
-2.35366
-2.32848
-2.39276
-2.35366
-2.29037
-2.26518
-2.32848
-2.29037
-2.22806
-2.20288
-2.26518
-2.22806
-2.16675
-2.14156
-2.20288
-2.16675
-2.10642
-2.08123
-2.14156
-2.10642
-2.04707
-2.02189
-2.08123
-2.04707
-1.98872
-1.96353
-2.02189
-1.98872
-1.93135
-1.90616
-1.96353
-1.93135
-1.87497
-1.84978
-1.90616
-1.87497
-1.81958
-1.79439
-1.84978
-1.81958
-1.76517
-1.73999
-1.79439
-1.76517
-1.71176
-1.68657
-1.73999
-1.71176
-1.65933
-1.63414
-1.68657
-1.65933
-1.60789
-1.5827
-1.63414
-1.60789
-1.55743
-1.53225
-1.5827
-1.55743
-1.50797
-1.48278
-1.53225
-1.50797
-1.45949
-1.4343
-1.48278
-1.45949
-1.412
-1.38681
-1.4343
-1.412
-1.36549
-1.34031
-1.38681
-1.36549
-1.31998
-1.29479
-1.34031
-1.31998
-1.27545
-1.25026
-1.29479
-1.27545
-1.23191
-1.20672
-1.25026
-1.23191
-1.18936
-1.16417
-1.20672
-1.18936
-1.14779
-1.12261
-1.16417
-1.14779
-1.10721
-1.08203
-1.12261
-1.10721
-1.06762
-1.04244
-1.08203
-1.06762
-1.02902
-1.00384
-1.04244
-1.02902
-0.991407
-0.966222
-1.00384
-0.991407
-0.954781
-0.929596
-0.966222
-0.954781
-0.919142
-0.893956
-0.929596
-0.919142
-0.88449
-0.859305
-0.893956
-0.88449
-0.850826
-0.825641
-0.859305
-0.850826
-0.81815
-0.792965
-0.825641
-0.81815
-0.786462
-0.761277
-0.792965
-0.786462
-0.755761
-0.730576
-0.761277
-0.755761
-0.726048
-0.700863
-0.730576
-0.726048
-0.697322
-0.672137
-0.700863
-0.697322
-0.669585
-0.644399
-0.672137
-0.669585
-0.642834
-0.617649
-0.644399
-0.642834
-0.617072
-0.591887
-0.617649
-0.617072
-0.592297
-0.567112
-0.591887
-0.592297
-0.56851
-0.543324
-0.567112
-0.56851
-0.54571
-0.520525
-0.543324
-0.54571
-0.523898
-0.498713
-0.520525
-0.523898
-0.503074
-0.477889
-0.498713
-0.503074
-0.483237
-0.458052
-0.477889
-0.483237
-0.464388
-0.439203
-0.458052
-0.464388
-0.446527
-0.421342
-0.439203
-0.446527
-0.429653
-0.404468
-0.421342
-0.429653
-0.413767
-0.388582
-0.404468
-0.413767
-0.398869
-0.373684
-0.388582
-0.398869
-0.384958
-0.359773
-0.373684
-0.384958
-0.372035
-0.34685
-0.359773
-0.372035
-0.3601
-0.334915
-0.34685
-0.3601
-0.349152
-0.323967
-0.334915
-0.349152
-0.339192
-0.314007
-0.323967
-0.339192
-0.33022
-0.305035
-0.314007
-0.33022
-0.322235
-0.29705
-0.305035
-0.322235
-0.315238
-0.290053
-0.29705
-0.315238
-0.309228
-0.284043
-0.290053
-0.309228
-0.304207
-0.279021
-0.284043
-0.304207
-0.300172
-0.274987
-0.279021
-0.300172
-0.297126
-0.271941
-0.274987
-0.297126
-0.295067
-0.269882
-0.271941
-0.295067
-0.293996
-0.268811
-0.269882
-0.293996
-0.293912
-0.268727
-0.268811
-0.293912
-0.294817
-0.269631
-0.268727
-0.294817
-0.296708
-0.271523
-0.269631
-0.296708
-0.299588
-0.274403
-0.271523
-0.299588
-0.303455
-0.27827
-0.274403
-0.303455
-0.30831
-0.283124
-0.27827
-0.30831
-0.314152
-0.288967
-0.283124
-0.314152
-0.320982
-0.295797
-0.288967
-0.320982
-0.3288
-0.303615
-0.295797
-0.3288
-0.337605
-0.31242
-0.303615
-0.337605
-0.347398
-0.322213
-0.31242
-0.347398
-0.358179
-0.332994
-0.322213
-0.358179
-0.369947
-0.344762
-0.332994
-0.369947
-0.382703
-0.357518
-0.344762
-0.382703
-0.396447
-0.371261
-0.357518
-0.396447
-0.411178
-0.385993
-0.371261
-0.411178
-0.426897
-0.401712
-0.385993
-0.426897
-0.443603
-0.418418
-0.401712
-0.443603
-0.461298
-0.436113
-0.418418
-0.461298
-0.47998
-0.454794
-0.436113
-0.47998
-0.499649
-0.474464
-0.454794
-0.499649
-0.520306
-0.495121
-0.474464
-0.520306
-0.541951
-0.516766
-0.495121
-0.541951
-0.564584
-0.539399
-0.516766
-0.564584
-0.588204
-0.563019
-0.539399
-0.588204
-0.612812
-0.587627
-0.563019
-0.612812
-0.638407
-0.613222
-0.587627
-0.638407
-0.66499
-0.639805
-0.613222
-0.66499
-0.692561
-0.667376
-0.639805
-0.692561
-0.72112
-0.695934
-0.667376
-0.72112
-0.750666
-0.725481
-0.695934
-0.750666
-0.7812
-0.756014
-0.725481
-0.7812
-0.812721
-0.787536
-0.756014
-0.812721
-0.84523
-0.820045
-0.787536
-0.84523
-0.878727
-0.853542
-0.820045
-0.878727
-0.913211
-0.888026
-0.853542
-0.913211
-0.948683
-0.923498
-0.888026
-0.948683
-0.985143
-0.959958
-0.923498
-0.985143
-1.02259
-0.997405
-0.959958
-1.02259
-1.06103
-1.03584
-0.997405
-1.06103
-1.10045
-1.07526
-1.03584
-1.10045
-1.14086
-1.11567
-1.07526
-1.14086
-1.18226
-1.15707
-1.11567
-1.18226
-1.22464
-1.19946
-1.15707
-1.22464
-1.26801
-1.24283
-1.19946
-1.26801
-1.31238
-1.28719
-1.24283
-1.31238
-1.35772
-1.33254
-1.28719
-1.35772
-1.40406
-1.37888
-1.33254
-1.40406
-1.45138
-1.4262
-1.37888
-1.45138
-1.4997
-1.47451
-1.4262
-1.4997
-1.549
-1.52381
-1.47451
-1.549
-1.59928
-1.5741
-1.52381
-1.59928
-1.65056
-1.62537
-1.5741
-1.65056
-1.70282
-1.67763
-1.62537
-3.55558
-3.47549
-3.4513
-3.53138
-3.47549
-3.3964
-3.3722
-3.4513
-3.3964
-3.31829
-3.29409
-3.3722
-3.31829
-3.24117
-3.21697
-3.29409
-3.24117
-3.16504
-3.14084
-3.21697
-3.16504
-3.08989
-3.06569
-3.14084
-3.08989
-3.01573
-2.99154
-3.06569
-3.01573
-2.94256
-2.91837
-2.99154
-2.94256
-2.87038
-2.84618
-2.91837
-2.87038
-2.79919
-2.77499
-2.84618
-2.79919
-2.72898
-2.70478
-2.77499
-2.72898
-2.65976
-2.63556
-2.70478
-2.65976
-2.59153
-2.56733
-2.63556
-2.59153
-2.52428
-2.50009
-2.56733
-2.52428
-2.45803
-2.43383
-2.50009
-2.45803
-2.39276
-2.36856
-2.43383
-2.39276
-2.32848
-2.30428
-2.36856
-2.32848
-2.26518
-2.24099
-2.30428
-2.26518
-2.20288
-2.17868
-2.24099
-2.20288
-2.14156
-2.11736
-2.17868
-2.14156
-2.08123
-2.05703
-2.11736
-2.08123
-2.02189
-1.99769
-2.05703
-2.02189
-1.96353
-1.93933
-1.99769
-1.96353
-1.90616
-1.88197
-1.93933
-1.90616
-1.84978
-1.82559
-1.88197
-1.84978
-1.79439
-1.77019
-1.82559
-1.79439
-1.73999
-1.71579
-1.77019
-1.73999
-1.68657
-1.66237
-1.71579
-1.68657
-1.63414
-1.60994
-1.66237
-1.63414
-1.5827
-1.5585
-1.60994
-1.5827
-1.53225
-1.50805
-1.5585
-1.53225
-1.48278
-1.45858
-1.50805
-1.48278
-1.4343
-1.4101
-1.45858
-1.4343
-1.38681
-1.36261
-1.4101
-1.38681
-1.34031
-1.31611
-1.36261
-1.34031
-1.29479
-1.27059
-1.31611
-1.29479
-1.25026
-1.22607
-1.27059
-1.25026
-1.20672
-1.18253
-1.22607
-1.20672
-1.16417
-1.13997
-1.18253
-1.16417
-1.12261
-1.09841
-1.13997
-1.12261
-1.08203
-1.05783
-1.09841
-1.08203
-1.04244
-1.01824
-1.05783
-1.04244
-1.00384
-0.979639
-1.01824
-1.00384
-0.966222
-0.942025
-0.979639
-0.966222
-0.929596
-0.905398
-0.942025
-0.929596
-0.893956
-0.869759
-0.905398
-0.893956
-0.859305
-0.835108
-0.869759
-0.859305
-0.825641
-0.801444
-0.835108
-0.825641
-0.792965
-0.768768
-0.801444
-0.792965
-0.761277
-0.737079
-0.768768
-0.761277
-0.730576
-0.706378
-0.737079
-0.730576
-0.700863
-0.676665
-0.706378
-0.700863
-0.672137
-0.64794
-0.676665
-0.672137
-0.644399
-0.620202
-0.64794
-0.644399
-0.617649
-0.593452
-0.620202
-0.617649
-0.591887
-0.567689
-0.593452
-0.591887
-0.567112
-0.542914
-0.567689
-0.567112
-0.543324
-0.519127
-0.542914
-0.543324
-0.520525
-0.496327
-0.519127
-0.520525
-0.498713
-0.474515
-0.496327
-0.498713
-0.477889
-0.453691
-0.474515
-0.477889
-0.458052
-0.433855
-0.453691
-0.458052
-0.439203
-0.415006
-0.433855
-0.439203
-0.421342
-0.397144
-0.415006
-0.421342
-0.404468
-0.380271
-0.397144
-0.404468
-0.388582
-0.364385
-0.380271
-0.388582
-0.373684
-0.349486
-0.364385
-0.373684
-0.359773
-0.335576
-0.349486
-0.359773
-0.34685
-0.322653
-0.335576
-0.34685
-0.334915
-0.310717
-0.322653
-0.334915
-0.323967
-0.299769
-0.310717
-0.323967
-0.314007
-0.289809
-0.299769
-0.314007
-0.305035
-0.280837
-0.289809
-0.305035
-0.29705
-0.272852
-0.280837
-0.29705
-0.290053
-0.265855
-0.272852
-0.290053
-0.284043
-0.259846
-0.265855
-0.284043
-0.279021
-0.254824
-0.259846
-0.279021
-0.274987
-0.25079
-0.254824
-0.274987
-0.271941
-0.247743
-0.25079
-0.271941
-0.269882
-0.245684
-0.247743
-0.269882
-0.268811
-0.244613
-0.245684
-0.268811
-0.268727
-0.24453
-0.244613
-0.268727
-0.269631
-0.245434
-0.24453
-0.269631
-0.271523
-0.247326
-0.245434
-0.271523
-0.274403
-0.250205
-0.247326
-0.274403
-0.27827
-0.254072
-0.250205
-0.27827
-0.283124
-0.258927
-0.254072
-0.283124
-0.288967
-0.264769
-0.258927
-0.288967
-0.295797
-0.271599
-0.264769
-0.295797
-0.303615
-0.279417
-0.271599
-0.303615
-0.31242
-0.288222
-0.279417
-0.31242
-0.322213
-0.298015
-0.288222
-0.322213
-0.332994
-0.308796
-0.298015
-0.332994
-0.344762
-0.320564
-0.308796
-0.344762
-0.357518
-0.33332
-0.320564
-0.357518
-0.371261
-0.347064
-0.33332
-0.371261
-0.385993
-0.361795
-0.347064
-0.385993
-0.401712
-0.377514
-0.361795
-0.401712
-0.418418
-0.394221
-0.377514
-0.418418
-0.436113
-0.411915
-0.394221
-0.436113
-0.454794
-0.430597
-0.411915
-0.454794
-0.474464
-0.450266
-0.430597
-0.474464
-0.495121
-0.470924
-0.450266
-0.495121
-0.516766
-0.492569
-0.470924
-0.516766
-0.539399
-0.515201
-0.492569
-0.539399
-0.563019
-0.538821
-0.515201
-0.563019
-0.587627
-0.563429
-0.538821
-0.587627
-0.613222
-0.589025
-0.563429
-0.613222
-0.639805
-0.615608
-0.589025
-0.639805
-0.667376
-0.643179
-0.615608
-0.667376
-0.695934
-0.671737
-0.643179
-0.695934
-0.725481
-0.701283
-0.671737
-0.725481
-0.756014
-0.731817
-0.701283
-0.756014
-0.787536
-0.763338
-0.731817
-0.787536
-0.820045
-0.795847
-0.763338
-0.820045
-0.853542
-0.829344
-0.795847
-0.853542
-0.888026
-0.863828
-0.829344
-0.888026
-0.923498
-0.8993
-0.863828
-0.923498
-0.959958
-0.93576
-0.8993
-0.959958
-0.997405
-0.973207
-0.93576
-0.997405
-1.03584
-1.01164
-0.973207
-1.03584
-1.07526
-1.05107
-1.01164
-1.07526
-1.11567
-1.09148
-1.05107
-1.11567
-1.15707
-1.13287
-1.09148
-1.15707
-1.19946
-1.17526
-1.13287
-1.19946
-1.24283
-1.21863
-1.17526
-1.24283
-1.28719
-1.26299
-1.21863
-1.28719
-1.33254
-1.30834
-1.26299
-1.33254
-1.37888
-1.35468
-1.30834
-1.37888
-1.4262
-1.402
-1.35468
-1.4262
-1.47451
-1.45031
-1.402
-1.47451
-1.52381
-1.49961
-1.45031
-1.52381
-1.5741
-1.5499
-1.49961
-1.5741
-1.62537
-1.60117
-1.5499
-1.62537
-1.67763
-1.65344
-1.60117
-3.53138
-3.4513
-3.42809
-3.50817
-3.4513
-3.3722
-3.34899
-3.42809
-3.3722
-3.29409
-3.27088
-3.34899
-3.29409
-3.21697
-3.19376
-3.27088
-3.21697
-3.14084
-3.11763
-3.19376
-3.14084
-3.06569
-3.04248
-3.11763
-3.06569
-2.99154
-2.96833
-3.04248
-2.99154
-2.91837
-2.89516
-2.96833
-2.91837
-2.84618
-2.82297
-2.89516
-2.84618
-2.77499
-2.75178
-2.82297
-2.77499
-2.70478
-2.68157
-2.75178
-2.70478
-2.63556
-2.61235
-2.68157
-2.63556
-2.56733
-2.54412
-2.61235
-2.56733
-2.50009
-2.47688
-2.54412
-2.50009
-2.43383
-2.41062
-2.47688
-2.43383
-2.36856
-2.34535
-2.41062
-2.36856
-2.30428
-2.28107
-2.34535
-2.30428
-2.24099
-2.21778
-2.28107
-2.24099
-2.17868
-2.15547
-2.21778
-2.17868
-2.11736
-2.09415
-2.15547
-2.11736
-2.05703
-2.03382
-2.09415
-2.05703
-1.99769
-1.97448
-2.03382
-1.99769
-1.93933
-1.91612
-1.97448
-1.93933
-1.88197
-1.85876
-1.91612
-1.88197
-1.82559
-1.80238
-1.85876
-1.82559
-1.77019
-1.74699
-1.80238
-1.77019
-1.71579
-1.69258
-1.74699
-1.71579
-1.66237
-1.63916
-1.69258
-1.66237
-1.60994
-1.58673
-1.63916
-1.60994
-1.5585
-1.53529
-1.58673
-1.5585
-1.50805
-1.48484
-1.53529
-1.50805
-1.45858
-1.43537
-1.48484
-1.45858
-1.4101
-1.38689
-1.43537
-1.4101
-1.36261
-1.3394
-1.38689
-1.36261
-1.31611
-1.2929
-1.3394
-1.31611
-1.27059
-1.24738
-1.2929
-1.27059
-1.22607
-1.20286
-1.24738
-1.22607
-1.18253
-1.15932
-1.20286
-1.18253
-1.13997
-1.11676
-1.15932
-1.13997
-1.09841
-1.0752
-1.11676
-1.09841
-1.05783
-1.03462
-1.0752
-1.05783
-1.01824
-0.995031
-1.03462
-1.01824
-0.979639
-0.956429
-0.995031
-0.979639
-0.942025
-0.918815
-0.956429
-0.942025
-0.905398
-0.882188
-0.918815
-0.905398
-0.869759
-0.846549
-0.882188
-0.869759
-0.835108
-0.811898
-0.846549
-0.835108
-0.801444
-0.778234
-0.811898
-0.801444
-0.768768
-0.745558
-0.778234
-0.768768
-0.737079
-0.713869
-0.745558
-0.737079
-0.706378
-0.683168
-0.713869
-0.706378
-0.676665
-0.653455
-0.683168
-0.676665
-0.64794
-0.62473
-0.653455
-0.64794
-0.620202
-0.596992
-0.62473
-0.620202
-0.593452
-0.570242
-0.596992
-0.593452
-0.567689
-0.544479
-0.570242
-0.567689
-0.542914
-0.519704
-0.544479
-0.542914
-0.519127
-0.495917
-0.519704
-0.519127
-0.496327
-0.473118
-0.495917
-0.496327
-0.474515
-0.451306
-0.473118
-0.474515
-0.453691
-0.430481
-0.451306
-0.453691
-0.433855
-0.410645
-0.430481
-0.433855
-0.415006
-0.391796
-0.410645
-0.415006
-0.397144
-0.373934
-0.391796
-0.397144
-0.380271
-0.357061
-0.373934
-0.380271
-0.364385
-0.341175
-0.357061
-0.364385
-0.349486
-0.326276
-0.341175
-0.349486
-0.335576
-0.312366
-0.326276
-0.335576
-0.322653
-0.299443
-0.312366
-0.322653
-0.310717
-0.287507
-0.299443
-0.310717
-0.299769
-0.27656
-0.287507
-0.299769
-0.289809
-0.2666
-0.27656
-0.289809
-0.280837
-0.257627
-0.2666
-0.280837
-0.272852
-0.249642
-0.257627
-0.272852
-0.265855
-0.242645
-0.249642
-0.265855
-0.259846
-0.236636
-0.242645
-0.259846
-0.254824
-0.231614
-0.236636
-0.254824
-0.25079
-0.22758
-0.231614
-0.25079
-0.247743
-0.224533
-0.22758
-0.247743
-0.245684
-0.222475
-0.224533
-0.245684
-0.244613
-0.221403
-0.222475
-0.244613
-0.24453
-0.22132
-0.221403
-0.24453
-0.245434
-0.222224
-0.22132
-0.245434
-0.247326
-0.224116
-0.222224
-0.247326
-0.250205
-0.226995
-0.224116
-0.250205
-0.254072
-0.230862
-0.226995
-0.254072
-0.258927
-0.235717
-0.230862
-0.258927
-0.264769
-0.241559
-0.235717
-0.264769
-0.271599
-0.248389
-0.241559
-0.271599
-0.279417
-0.256207
-0.248389
-0.279417
-0.288222
-0.265012
-0.256207
-0.288222
-0.298015
-0.274805
-0.265012
-0.298015
-0.308796
-0.285586
-0.274805
-0.308796
-0.320564
-0.297354
-0.285586
-0.320564
-0.33332
-0.31011
-0.297354
-0.33332
-0.347064
-0.323854
-0.31011
-0.347064
-0.361795
-0.338585
-0.323854
-0.361795
-0.377514
-0.354304
-0.338585
-0.377514
-0.394221
-0.371011
-0.354304
-0.394221
-0.411915
-0.388705
-0.371011
-0.411915
-0.430597
-0.407387
-0.388705
-0.430597
-0.450266
-0.427057
-0.407387
-0.450266
-0.470924
-0.447714
-0.427057
-0.470924
-0.492569
-0.469359
-0.447714
-0.492569
-0.515201
-0.491991
-0.469359
-0.515201
-0.538821
-0.515611
-0.491991
-0.538821
-0.563429
-0.540219
-0.515611
-0.563429
-0.589025
-0.565815
-0.540219
-0.589025
-0.615608
-0.592398
-0.565815
-0.615608
-0.643179
-0.619969
-0.592398
-0.643179
-0.671737
-0.648527
-0.619969
-0.671737
-0.701283
-0.678073
-0.648527
-0.701283
-0.731817
-0.708607
-0.678073
-0.731817
-0.763338
-0.740128
-0.708607
-0.763338
-0.795847
-0.772637
-0.740128
-0.795847
-0.829344
-0.806134
-0.772637
-0.829344
-0.863828
-0.840618
-0.806134
-0.863828
-0.8993
-0.876091
-0.840618
-0.8993
-0.93576
-0.91255
-0.876091
-0.93576
-0.973207
-0.949998
-0.91255
-0.973207
-1.01164
-0.988433