# vtk DataFile Version 1.0
unstructured Grid
ASCII
DATASET UNSTRUCTURED_GRID
POINTS 23440 float 
0 0	 0.0
0.0222222 0	 0.0
0.0222222 0.0222222	 0.0
0 0.0222222	 0.0
0.0222222 0	 0.0
0.0444444 0	 0.0
0.0444444 0.0222222	 0.0
0.0222222 0.0222222	 0.0
0.0444444 0	 0.0
0.0666667 0	 0.0
0.0666667 0.0222222	 0.0
0.0444444 0.0222222	 0.0
0.0666667 0	 0.0
0.0888889 0	 0.0
0.0888889 0.0222222	 0.0
0.0666667 0.0222222	 0.0
0.0888889 0	 0.0
0.111111 0	 0.0
0.111111 0.0222222	 0.0
0.0888889 0.0222222	 0.0
0.111111 0	 0.0
0.133333 0	 0.0
0.133333 0.0222222	 0.0
0.111111 0.0222222	 0.0
0.133333 0	 0.0
0.155556 0	 0.0
0.155556 0.0222222	 0.0
0.133333 0.0222222	 0.0
0.155556 0	 0.0
0.177778 0	 0.0
0.177778 0.0222222	 0.0
0.155556 0.0222222	 0.0
0.177778 0	 0.0
0.2 0	 0.0
0.2 0.0222222	 0.0
0.177778 0.0222222	 0.0
0.2 0	 0.0
0.222222 0	 0.0
0.222222 0.0222222	 0.0
0.2 0.0222222	 0.0
0.222222 0	 0.0
0.244444 0	 0.0
0.244444 0.0222222	 0.0
0.222222 0.0222222	 0.0
0.244444 0	 0.0
0.266667 0	 0.0
0.266667 0.0222222	 0.0
0.244444 0.0222222	 0.0
0.266667 0	 0.0
0.288889 0	 0.0
0.288889 0.0222222	 0.0
0.266667 0.0222222	 0.0
0.288889 0	 0.0
0.311111 0	 0.0
0.311111 0.0222222	 0.0
0.288889 0.0222222	 0.0
0.311111 0	 0.0
0.333333 0	 0.0
0.333333 0.0222222	 0.0
0.311111 0.0222222	 0.0
0.333333 0	 0.0
0.355556 0	 0.0
0.355556 0.0222222	 0.0
0.333333 0.0222222	 0.0
0.355556 0	 0.0
0.377778 0	 0.0
0.377778 0.0222222	 0.0
0.355556 0.0222222	 0.0
0.377778 0	 0.0
0.4 0	 0.0
0.4 0.0222222	 0.0
0.377778 0.0222222	 0.0
0.4 0	 0.0
0.422222 0	 0.0
0.422222 0.0222222	 0.0
0.4 0.0222222	 0.0
0.422222 0	 0.0
0.444444 0	 0.0
0.444444 0.0222222	 0.0
0.422222 0.0222222	 0.0
0.444444 0	 0.0
0.466667 0	 0.0
0.466667 0.0222222	 0.0
0.444444 0.0222222	 0.0
0.466667 0	 0.0
0.488889 0	 0.0
0.488889 0.0222222	 0.0
0.466667 0.0222222	 0.0
0.488889 0	 0.0
0.511111 0	 0.0
0.511111 0.0222222	 0.0
0.488889 0.0222222	 0.0
0.511111 0	 0.0
0.533333 0	 0.0
0.533333 0.0222222	 0.0
0.511111 0.0222222	 0.0
0.533333 0	 0.0
0.555556 0	 0.0
0.555556 0.0222222	 0.0
0.533333 0.0222222	 0.0
0.555556 0	 0.0
0.577778 0	 0.0
0.577778 0.0222222	 0.0
0.555556 0.0222222	 0.0
0.577778 0	 0.0
0.6 0	 0.0
0.6 0.0222222	 0.0
0.577778 0.0222222	 0.0
0.6 0	 0.0
0.622222 0	 0.0
0.622222 0.0222222	 0.0
0.6 0.0222222	 0.0
0.622222 0	 0.0
0.644444 0	 0.0
0.644444 0.0222222	 0.0
0.622222 0.0222222	 0.0
0.644444 0	 0.0
0.666667 0	 0.0
0.666667 0.0222222	 0.0
0.644444 0.0222222	 0.0
0.666667 0	 0.0
0.688889 0	 0.0
0.688889 0.0222222	 0.0
0.666667 0.0222222	 0.0
0.688889 0	 0.0
0.711111 0	 0.0
0.711111 0.0222222	 0.0
0.688889 0.0222222	 0.0
0.711111 0	 0.0
0.733333 0	 0.0
0.733333 0.0222222	 0.0
0.711111 0.0222222	 0.0
0.733333 0	 0.0
0.755556 0	 0.0
0.755556 0.0222222	 0.0
0.733333 0.0222222	 0.0
0.755556 0	 0.0
0.777778 0	 0.0
0.777778 0.0222222	 0.0
0.755556 0.0222222	 0.0
0.777778 0	 0.0
0.8 0	 0.0
0.8 0.0222222	 0.0
0.777778 0.0222222	 0.0
0.8 0	 0.0
0.822222 0	 0.0
0.822222 0.0222222	 0.0
0.8 0.0222222	 0.0
0.822222 0	 0.0
0.844444 0	 0.0
0.844444 0.0222222	 0.0
0.822222 0.0222222	 0.0
0.844444 0	 0.0
0.866667 0	 0.0
0.866667 0.0222222	 0.0
0.844444 0.0222222	 0.0
0.866667 0	 0.0
0.888889 0	 0.0
0.888889 0.0222222	 0.0
0.866667 0.0222222	 0.0
0.888889 0	 0.0
0.911111 0	 0.0
0.911111 0.0222222	 0.0
0.888889 0.0222222	 0.0
0.911111 0	 0.0
0.933333 0	 0.0
0.933333 0.0222222	 0.0
0.911111 0.0222222	 0.0
0.933333 0	 0.0
0.955556 0	 0.0
0.955556 0.0222222	 0.0
0.933333 0.0222222	 0.0
0.955556 0	 0.0
0.977778 0	 0.0
0.977778 0.0222222	 0.0
0.955556 0.0222222	 0.0
0.977778 0	 0.0
1 0	 0.0
1 0.0222222	 0.0
0.977778 0.0222222	 0.0
1 0	 0.0
1.02222 0	 0.0
1.02222 0.0222222	 0.0
1 0.0222222	 0.0
1.02222 0	 0.0
1.04444 0	 0.0
1.04444 0.0222222	 0.0
1.02222 0.0222222	 0.0
1.04444 0	 0.0
1.06667 0	 0.0
1.06667 0.0222222	 0.0
1.04444 0.0222222	 0.0
1.06667 0	 0.0
1.08889 0	 0.0
1.08889 0.0222222	 0.0
1.06667 0.0222222	 0.0
1.08889 0	 0.0
1.11111 0	 0.0
1.11111 0.0222222	 0.0
1.08889 0.0222222	 0.0
1.11111 0	 0.0
1.13333 0	 0.0
1.13333 0.0222222	 0.0
1.11111 0.0222222	 0.0
1.13333 0	 0.0
1.15556 0	 0.0
1.15556 0.0222222	 0.0
1.13333 0.0222222	 0.0
1.15556 0	 0.0
1.17778 0	 0.0
1.17778 0.0222222	 0.0
1.15556 0.0222222	 0.0
1.17778 0	 0.0
1.2 0	 0.0
1.2 0.0222222	 0.0
1.17778 0.0222222	 0.0
1.2 0	 0.0
1.22222 0	 0.0
1.22222 0.0222222	 0.0
1.2 0.0222222	 0.0
1.22222 0	 0.0
1.24444 0	 0.0
1.24444 0.0222222	 0.0
1.22222 0.0222222	 0.0
1.24444 0	 0.0
1.26667 0	 0.0
1.26667 0.0222222	 0.0
1.24444 0.0222222	 0.0
1.26667 0	 0.0
1.28889 0	 0.0
1.28889 0.0222222	 0.0
1.26667 0.0222222	 0.0
1.28889 0	 0.0
1.31111 0	 0.0
1.31111 0.0222222	 0.0
1.28889 0.0222222	 0.0
1.31111 0	 0.0
1.33333 0	 0.0
1.33333 0.0222222	 0.0
1.31111 0.0222222	 0.0
1.33333 0	 0.0
1.35556 0	 0.0
1.35556 0.0222222	 0.0
1.33333 0.0222222	 0.0
1.35556 0	 0.0
1.37778 0	 0.0
1.37778 0.0222222	 0.0
1.35556 0.0222222	 0.0
1.37778 0	 0.0
1.4 0	 0.0
1.4 0.0222222	 0.0
1.37778 0.0222222	 0.0
1.4 0	 0.0
1.42222 0	 0.0
1.42222 0.0222222	 0.0
1.4 0.0222222	 0.0
1.42222 0	 0.0
1.44444 0	 0.0
1.44444 0.0222222	 0.0
1.42222 0.0222222	 0.0
1.44444 0	 0.0
1.46667 0	 0.0
1.46667 0.0222222	 0.0
1.44444 0.0222222	 0.0
1.46667 0	 0.0
1.48889 0	 0.0
1.48889 0.0222222	 0.0
1.46667 0.0222222	 0.0
1.48889 0	 0.0
1.51111 0	 0.0
1.51111 0.0222222	 0.0
1.48889 0.0222222	 0.0
1.51111 0	 0.0
1.53333 0	 0.0
1.53333 0.0222222	 0.0
1.51111 0.0222222	 0.0
1.53333 0	 0.0
1.55556 0	 0.0
1.55556 0.0222222	 0.0
1.53333 0.0222222	 0.0
1.55556 0	 0.0
1.57778 0	 0.0
1.57778 0.0222222	 0.0
1.55556 0.0222222	 0.0
1.57778 0	 0.0
1.6 0	 0.0
1.6 0.0222222	 0.0
1.57778 0.0222222	 0.0
1.6 0	 0.0
1.62222 0	 0.0
1.62222 0.0222222	 0.0
1.6 0.0222222	 0.0
1.62222 0	 0.0
1.64444 0	 0.0
1.64444 0.0222222	 0.0
1.62222 0.0222222	 0.0
1.64444 0	 0.0
1.66667 0	 0.0
1.66667 0.0222222	 0.0
1.64444 0.0222222	 0.0
1.66667 0	 0.0
1.68889 0	 0.0
1.68889 0.0222222	 0.0
1.66667 0.0222222	 0.0
1.68889 0	 0.0
1.71111 0	 0.0
1.71111 0.0222222	 0.0
1.68889 0.0222222	 0.0
1.71111 0	 0.0
1.73333 0	 0.0
1.73333 0.0222222	 0.0
1.71111 0.0222222	 0.0
1.73333 0	 0.0
1.75556 0	 0.0
1.75556 0.0222222	 0.0
1.73333 0.0222222	 0.0
1.75556 0	 0.0
1.77778 0	 0.0
1.77778 0.0222222	 0.0
1.75556 0.0222222	 0.0
1.77778 0	 0.0
1.8 0	 0.0
1.8 0.0222222	 0.0
1.77778 0.0222222	 0.0
1.8 0	 0.0
1.82222 0	 0.0
1.82222 0.0222222	 0.0
1.8 0.0222222	 0.0
1.82222 0	 0.0
1.84444 0	 0.0
1.84444 0.0222222	 0.0
1.82222 0.0222222	 0.0
1.84444 0	 0.0
1.86667 0	 0.0
1.86667 0.0222222	 0.0
1.84444 0.0222222	 0.0
1.86667 0	 0.0
1.88889 0	 0.0
1.88889 0.0222222	 0.0
1.86667 0.0222222	 0.0
1.88889 0	 0.0
1.91111 0	 0.0
1.91111 0.0222222	 0.0
1.88889 0.0222222	 0.0
1.91111 0	 0.0
1.93333 0	 0.0
1.93333 0.0222222	 0.0
1.91111 0.0222222	 0.0
1.93333 0	 0.0
1.95556 0	 0.0
1.95556 0.0222222	 0.0
1.93333 0.0222222	 0.0
1.95556 0	 0.0
1.97778 0	 0.0
1.97778 0.0222222	 0.0
1.95556 0.0222222	 0.0
1.97778 0	 0.0
2 0	 0.0
2 0.0222222	 0.0
1.97778 0.0222222	 0.0
2 0	 0.0
2.02222 0	 0.0
2.02222 0.0222222	 0.0
2 0.0222222	 0.0
2.02222 0	 0.0
2.04444 0	 0.0
2.04444 0.0222222	 0.0
2.02222 0.0222222	 0.0
2.04444 0	 0.0
2.06667 0	 0.0
2.06667 0.0222222	 0.0
2.04444 0.0222222	 0.0
2.06667 0	 0.0
2.08889 0	 0.0
2.08889 0.0222222	 0.0
2.06667 0.0222222	 0.0
2.08889 0	 0.0
2.11111 0	 0.0
2.11111 0.0222222	 0.0
2.08889 0.0222222	 0.0
2.11111 0	 0.0
2.13333 0	 0.0
2.13333 0.0222222	 0.0
2.11111 0.0222222	 0.0
2.13333 0	 0.0
2.15556 0	 0.0
2.15556 0.0222222	 0.0
2.13333 0.0222222	 0.0
2.15556 0	 0.0
2.17778 0	 0.0
2.17778 0.0222222	 0.0
2.15556 0.0222222	 0.0
2.17778 0	 0.0
2.2 0	 0.0
2.2 0.0222222	 0.0
2.17778 0.0222222	 0.0
2.2 0	 0.0
2.22222 0	 0.0
2.22222 0.0222222	 0.0
2.2 0.0222222	 0.0
2.22222 0	 0.0
2.24444 0	 0.0
2.24444 0.0222222	 0.0
2.22222 0.0222222	 0.0
2.24444 0	 0.0
2.26667 0	 0.0
2.26667 0.0222222	 0.0
2.24444 0.0222222	 0.0
2.26667 0	 0.0
2.28889 0	 0.0
2.28889 0.0222222	 0.0
2.26667 0.0222222	 0.0
2.28889 0	 0.0
2.31111 0	 0.0
2.31111 0.0222222	 0.0
2.28889 0.0222222	 0.0
2.31111 0	 0.0
2.33333 0	 0.0
2.33333 0.0222222	 0.0
2.31111 0.0222222	 0.0
2.33333 0	 0.0
2.35556 0	 0.0
2.35556 0.0222222	 0.0
2.33333 0.0222222	 0.0
2.35556 0	 0.0
2.37778 0	 0.0
2.37778 0.0222222	 0.0
2.35556 0.0222222	 0.0
2.37778 0	 0.0
2.4 0	 0.0
2.4 0.0222222	 0.0
2.37778 0.0222222	 0.0
2.4 0	 0.0
2.42222 0	 0.0
2.42222 0.0222222	 0.0
2.4 0.0222222	 0.0
2.42222 0	 0.0
2.44444 0	 0.0
2.44444 0.0222222	 0.0
2.42222 0.0222222	 0.0
2.44444 0	 0.0
2.46667 0	 0.0
2.46667 0.0222222	 0.0
2.44444 0.0222222	 0.0
2.46667 0	 0.0
2.48889 0	 0.0
2.48889 0.0222222	 0.0
2.46667 0.0222222	 0.0
2.48889 0	 0.0
2.51111 0	 0.0
2.51111 0.0222222	 0.0
2.48889 0.0222222	 0.0
2.51111 0	 0.0
2.53333 0	 0.0
2.53333 0.0222222	 0.0
2.51111 0.0222222	 0.0
2.53333 0	 0.0
2.55556 0	 0.0
2.55556 0.0222222	 0.0
2.53333 0.0222222	 0.0
2.55556 0	 0.0
2.57778 0	 0.0
2.57778 0.0222222	 0.0
2.55556 0.0222222	 0.0
2.57778 0	 0.0
2.6 0	 0.0
2.6 0.0222222	 0.0
2.57778 0.0222222	 0.0
2.6 0	 0.0
2.62222 0	 0.0
2.62222 0.0222222	 0.0
2.6 0.0222222	 0.0
2.62222 0	 0.0
2.64444 0	 0.0
2.64444 0.0222222	 0.0
2.62222 0.0222222	 0.0
2.64444 0	 0.0
2.66667 0	 0.0
2.66667 0.0222222	 0.0
2.64444 0.0222222	 0.0
2.66667 0	 0.0
2.68889 0	 0.0
2.68889 0.0222222	 0.0
2.66667 0.0222222	 0.0
2.68889 0	 0.0
2.71111 0	 0.0
2.71111 0.0222222	 0.0
2.68889 0.0222222	 0.0
2.71111 0	 0.0
2.73333 0	 0.0
2.73333 0.0222222	 0.0
2.71111 0.0222222	 0.0
2.73333 0	 0.0
2.75556 0	 0.0
2.75556 0.0222222	 0.0
2.73333 0.0222222	 0.0
2.75556 0	 0.0
2.77778 0	 0.0
2.77778 0.0222222	 0.0
2.75556 0.0222222	 0.0
2.77778 0	 0.0
2.8 0	 0.0
2.8 0.0222222	 0.0
2.77778 0.0222222	 0.0
2.8 0	 0.0
2.82222 0	 0.0
2.82222 0.0222222	 0.0
2.8 0.0222222	 0.0
2.82222 0	 0.0
2.84444 0	 0.0
2.84444 0.0222222	 0.0
2.82222 0.0222222	 0.0
2.84444 0	 0.0
2.86667 0	 0.0
2.86667 0.0222222	 0.0
2.84444 0.0222222	 0.0
2.86667 0	 0.0
2.88889 0	 0.0
2.88889 0.0222222	 0.0
2.86667 0.0222222	 0.0
2.88889 0	 0.0
2.91111 0	 0.0
2.91111 0.0222222	 0.0
2.88889 0.0222222	 0.0
2.91111 0	 0.0
[...]
POINT_DATA 23440
SCALARS levelset_first float
LOOKUP_TABLE default
-5.24031
-5.14222
-5.11604
-5.21414
-5.14222
-5.04511
-5.01894
-5.11604
-5.04511
-4.949
-4.92282
-5.01894
-4.949
-4.85387
-4.82769
-4.92282
-4.85387
-4.75973
-4.73355
-4.82769
-4.75973
-4.66657
-4.6404
-4.73355
-4.66657
-4.57441
-4.54823
-4.6404
-4.57441
-4.48323
-4.45706
-4.54823
-4.48323
-4.39304
-4.36686
-4.45706
-4.39304
-4.30383
-4.27766
-4.36686
-4.30383
-4.21562
-4.18945
-4.27766
-4.21562
-4.12839
-4.10222
-4.18945
-4.12839
-4.04215
-4.01598
-4.10222
-4.04215
-3.9569
-3.93073
-4.01598
-3.9569
-3.87263
-3.84646
-3.93073
-3.87263
-3.78936
-3.76319
-3.84646
-3.78936
-3.70707
-3.6809
-3.76319
-3.70707
-3.62577
-3.59959
-3.6809
-3.62577
-3.54545
-3.51928
-3.59959
-3.54545
-3.46613
-3.43995
-3.51928
-3.46613
-3.38779
-3.36161
-3.43995
-3.38779
-3.31044
-3.28426
-3.36161
-3.31044
-3.23407
-3.2079
-3.28426
-3.23407
-3.1587
-3.13252
-3.2079
-3.1587
-3.08431
-3.05814
-3.13252
-3.08431
-3.01091
-2.98474
-3.05814
-3.01091
-2.9385
-2.91232
-2.98474
-2.9385
-2.86707
-2.8409
-2.91232
-2.86707
-2.79663
-2.77046
-2.8409
-2.79663
-2.72718
-2.70101
-2.77046
-2.72718
-2.65872
-2.63255
-2.70101
-2.65872
-2.59125
-2.56507
-2.63255
-2.59125
-2.52476
-2.49859
-2.56507
-2.52476
-2.45926
-2.43309
-2.49859
-2.45926
-2.39475
-2.36858
-2.43309
-2.39475
-2.33123
-2.30505
-2.36858
-2.33123
-2.26869
-2.24252
-2.30505
-2.26869
-2.20714
-2.18097
-2.24252
-2.20714
-2.14658
-2.12041
-2.18097
-2.14658
-2.08701
-2.06083
-2.12041
-2.08701
-2.02842
-2.00225
-2.06083
-2.02842
-1.97082
-1.94465
-2.00225
-1.97082
-1.91421
-1.88804
-1.94465
-1.91421
-1.85859
-1.83242
-1.88804
-1.85859
-1.80395
-1.77778
-1.83242
-1.80395
-1.75031
-1.72413
-1.77778
-1.75031
-1.69765
-1.67147
-1.72413
-1.69765
-1.64598
-1.6198
-1.67147
-1.64598
-1.59529
-1.56912
-1.6198
-1.59529
-1.54559
-1.51942
-1.56912
-1.54559
-1.49689
-1.47071
-1.51942
-1.49689
-1.44916
-1.42299
-1.47071
-1.44916
-1.40243
-1.37626
-1.42299
-1.40243
-1.35668
-1.33051
-1.37626
-1.35668
-1.31193
-1.28575
-1.33051
-1.31193
-1.26815
-1.24198
-1.28575
-1.26815
-1.22537
-1.1992
-1.24198
-1.22537
-1.18358
-1.1574
-1.1992
-1.18358
-1.14277
-1.1166
-1.1574
-1.14277
-1.10295
-1.07678
-1.1166
-1.10295
-1.06412
-1.03794
-1.07678
-1.06412
-1.02627
-1.0001
-1.03794
-1.02627
-0.989413
-0.96324
-1.0001
-0.989413
-0.953544
-0.927371
-0.96324
-0.953544
-0.918662
-0.892489
-0.927371
-0.918662
-0.884767
-0.858595
-0.892489
-0.884767
-0.851861
-0.825688
-0.858595
-0.851861
-0.819942
-0.793769
-0.825688
-0.819942
-0.789011
-0.762838
-0.793769
-0.789011
-0.759067
-0.732894
-0.762838
-0.759067
-0.730111
-0.703938
-0.732894
-0.730111
-0.702143
-0.67597
-0.703938
-0.702143
-0.675162
-0.648989
-0.67597
-0.675162
-0.649169
-0.622996
-0.648989
-0.649169
-0.624163
-0.597991
-0.622996
-0.624163
-0.600146
-0.573973
-0.597991
-0.600146
-0.577116
-0.550943
-0.573973
-0.577116
-0.555073
-0.5289
-0.550943
-0.555073
-0.534018
-0.507846
-0.5289
-0.534018
-0.513951
-0.487778
-0.507846
-0.513951
-0.494872
-0.468699
-0.487778
-0.494872
-0.47678
-0.450607
-0.468699
-0.47678
-0.459676
-0.433503
-0.450607
-0.459676
-0.443559
-0.417387
-0.433503
-0.443559
-0.428431
-0.402258
-0.417387
-0.428431
-0.414289
-0.388116
-0.402258
-0.414289
-0.401136
-0.374963
-0.388116
-0.401136
-0.38897
-0.362797
-0.374963
-0.38897
-0.377792
-0.351619
-0.362797
-0.377792
-0.367601
-0.341428
-0.351619
-0.367601
-0.358398
-0.332225
-0.341428
-0.358398
-0.350183
-0.32401
-0.332225
-0.350183
-0.342955
-0.316782
-0.32401
-0.342955
-0.336715
-0.310543
-0.316782
-0.336715
-0.331463
-0.30529
-0.310543
-0.331463
-0.327198
-0.301026
-0.30529
-0.327198
-0.323921
-0.297749
-0.301026
-0.323921
-0.321632
-0.295459
-0.297749
-0.321632
-0.32033
-0.294158
-0.295459
-0.32033
-0.320016
-0.293844
-0.294158
-0.320016
-0.32069
-0.294517
-0.293844
-0.32069
-0.322351
-0.296178
-0.294517
-0.322351
-0.325
-0.298827
-0.296178
-0.325
-0.328637
-0.302464
-0.298827
-0.328637
-0.333261
-0.307088
-0.302464
-0.333261
-0.338873
-0.3127
-0.307088
-0.338873
-0.345472
-0.3193
-0.3127
-0.345472
-0.35306
-0.326887
-0.3193
-0.35306
-0.361635
-0.335462
-0.326887
-0.361635
-0.371197
-0.345024
-0.335462
-0.371197
-0.381747
-0.355574
-0.345024
-0.381747
-0.393285
-0.367112
-0.355574
-0.393285
-0.405811
-0.379638
-0.367112
-0.405811
-0.419324
-0.393151
-0.379638
-0.419324
-0.433824
-0.407652
-0.393151
-0.433824
-0.449313
-0.42314
-0.407652
-0.449313
-0.465789
-0.439616
-0.42314
-0.465789
-0.483253
-0.45708
-0.439616
-0.483253
-0.501704
-0.475531
-0.45708
-0.501704
-0.521143
-0.49497
-0.475531
-0.521143
-0.54157
-0.515397
-0.49497
-0.54157
-0.562984
-0.536811
-0.515397
-0.562984
-0.585386
-0.559213
-0.536811
-0.585386
-0.608776
-0.582603
-0.559213
-0.608776
-0.633153
-0.60698
-0.582603
-0.633153
-0.658518
-0.632345
-0.60698
-0.658518
-0.684871
-0.658698
-0.632345
-0.684871
-0.712211
-0.686038
-0.658698
-0.712211
-0.740539
-0.714366
-0.686038
-0.740539
-0.769855
-0.743682
-0.714366
-0.769855
-0.800158
-0.773985
-0.743682
-0.800158
-0.831449
-0.805276
-0.773985
-0.831449
-0.863727
-0.837555
-0.805276
-0.863727
-0.896994
-0.870821
-0.837555
-0.896994
-0.931248
-0.905075
-0.870821
-5.21414
-5.11604
-5.09086
-5.18895
-5.11604
-5.01894
-4.99375
-5.09086
-5.01894
-4.92282
-4.89764
-4.99375
-4.92282
-4.82769
-4.80251
-4.89764
-4.82769
-4.73355
-4.70837
-4.80251
-4.73355
-4.6404
-4.61521
-4.70837
-4.6404
-4.54823
-4.52305
-4.61521
-4.54823
-4.45706
-4.43187
-4.52305
-4.45706
-4.36686
-4.34168
-4.43187
-4.36686
-4.27766
-4.25248
-4.34168
-4.27766
-4.18945
-4.16426
-4.25248
-4.18945
-4.10222
-4.07703
-4.16426
-4.10222
-4.01598
-3.99079
-4.07703
-4.01598
-3.93073
-3.90554
-3.99079
-3.93073
-3.84646
-3.82128
-3.90554
-3.84646
-3.76319
-3.738
-3.82128
-3.76319
-3.6809
-3.65571
-3.738
-3.6809
-3.59959
-3.57441
-3.65571
-3.59959
-3.51928
-3.49409
-3.57441
-3.51928
-3.43995
-3.41477
-3.49409
-3.43995
-3.36161
-3.33643
-3.41477
-3.36161
-3.28426
-3.25908
-3.33643
-3.28426
-3.2079
-3.18272
-3.25908
-3.2079
-3.13252
-3.10734
-3.18272
-3.13252
-3.05814
-3.03295
-3.10734
-3.05814
-2.98474
-2.95955
-3.03295
-2.98474
-2.91232
-2.88714
-2.95955
-2.91232
-2.8409
-2.81571
-2.88714
-2.8409
-2.77046
-2.74528
-2.81571
-2.77046
-2.70101
-2.67583
-2.74528
-2.70101
-2.63255
-2.60736
-2.67583
-2.63255
-2.56507
-2.53989
-2.60736
-2.56507
-2.49859
-2.4734
-2.53989
-2.49859
-2.43309
-2.4079
-2.4734
-2.43309
-2.36858
-2.34339
-2.4079
-2.36858
-2.30505
-2.27987
-2.34339
-2.30505
-2.24252
-2.21733
-2.27987
-2.24252
-2.18097
-2.15578
-2.21733
-2.18097
-2.12041
-2.09522
-2.15578
-2.12041
-2.06083
-2.03565
-2.09522
-2.06083
-2.00225
-1.97706
-2.03565
-2.00225
-1.94465
-1.91946
-1.97706
-1.94465
-1.88804
-1.86285
-1.91946
-1.88804
-1.83242
-1.80723
-1.86285
-1.83242
-1.77778
-1.7526
-1.80723
-1.77778
-1.72413
-1.69895
-1.7526
-1.72413
-1.67147
-1.64629
-1.69895
-1.67147
-1.6198
-1.59462
-1.64629
-1.6198
-1.56912
-1.54393
-1.59462
-1.56912
-1.51942
-1.49424
-1.54393
-1.51942
-1.47071
-1.44553
-1.49424
-1.47071
-1.42299
-1.39781
-1.44553
-1.42299
-1.37626
-1.35107
-1.39781
-1.37626
-1.33051
-1.30533
-1.35107
-1.33051
-1.28575
-1.26057
-1.30533
-1.28575
-1.24198
-1.2168
-1.26057
-1.24198
-1.1992
-1.17401
-1.2168
-1.1992
-1.1574
-1.13222
-1.17401
-1.1574
-1.1166
-1.09141
-1.13222
-1.1166
-1.07678
-1.05159
-1.09141
-1.07678
-1.03794
-1.01276
-1.05159
-1.03794
-1.0001
-0.974912
-1.01276
-1.0001
-0.96324
-0.938055
-0.974912
-0.96324
-0.927371
-0.902186
-0.938055
-0.927371
-0.892489
-0.867304
-0.902186
-0.892489
-0.858595
-0.833409
-0.867304
-0.858595
-0.825688
-0.800503
-0.833409
-0.825688
-0.793769
-0.768584
-0.800503
-0.793769
-0.762838
-0.737653
-0.768584
-0.762838
-0.732894
-0.707709
-0.737653
-0.732894
-0.703938
-0.678753
-0.707709
-0.703938
-0.67597
-0.650785
-0.678753
-0.67597
-0.648989
-0.623804
-0.650785
-0.648989
-0.622996
-0.597811
-0.623804
-0.622996
-0.597991
-0.572805
-0.597811
-0.597991
-0.573973
-0.548788
-0.572805
-0.573973
-0.550943
-0.525758
-0.548788
-0.550943
-0.5289
-0.503715
-0.525758
-0.5289
-0.507846
-0.48266
-0.503715
-0.507846
-0.487778
-0.462593
-0.48266
-0.487778
-0.468699
-0.443514
-0.462593
-0.468699
-0.450607
-0.425422
-0.443514
-0.450607
-0.433503
-0.408318
-0.425422
-0.433503
-0.417387
-0.392201
-0.408318
-0.417387
-0.402258
-0.377072
-0.392201
-0.402258
-0.388116
-0.362931
-0.377072
-0.388116
-0.374963
-0.349778
-0.362931
-0.374963
-0.362797
-0.337612
-0.349778
-0.362797
-0.351619
-0.326434
-0.337612
-0.351619
-0.341428
-0.316243
-0.326434
-0.341428
-0.332225
-0.30704
-0.316243
-0.332225
-0.32401
-0.298825
-0.30704
-0.32401
-0.316782
-0.291597
-0.298825
-0.316782
-0.310543
-0.285357
-0.291597
-0.310543
-0.30529
-0.280105
-0.285357
-0.30529
-0.301026
-0.27584
-0.280105
-0.301026
-0.297749
-0.272563
-0.27584
-0.297749
-0.295459
-0.270274
-0.272563
-0.295459
-0.294158
-0.268972
-0.270274
-0.294158
-0.293844
-0.268658
-0.268972
-0.293844
-0.294517
-0.269332
-0.268658
-0.294517
-0.296178
-0.270993
-0.269332
-0.296178
-0.298827
-0.273642
-0.270993
-0.298827
-0.302464
-0.277279
-0.273642
-0.302464
-0.307088
-0.281903
-0.277279
-0.307088
-0.3127
-0.287515
-0.281903
-0.3127
-0.3193
-0.294114
-0.287515
-0.3193
-0.326887
-0.301702
-0.294114
-0.326887
-0.335462
-0.310277
-0.301702
-0.335462
-0.345024
-0.319839
-0.310277
-0.345024
-0.355574
-0.330389
-0.319839
-0.355574
-0.367112
-0.341927
-0.330389
-0.367112
-0.379638
-0.354452
-0.341927
-0.379638
-0.393151
-0.367966
-0.354452
-0.393151
-0.407652
-0.382466
-0.367966
-0.407652
-0.42314
-0.397955
-0.382466
-0.42314
-0.439616
-0.414431
-0.397955
-0.439616
-0.45708
-0.431895
-0.414431
-0.45708
-0.475531
-0.450346
-0.431895
-0.475531
-0.49497
-0.469785
-0.450346
-0.49497
-0.515397
-0.490212
-0.469785
-0.515397
-0.536811
-0.511626
-0.490212
-0.536811
-0.559213
-0.534028
-0.511626
-0.559213
-0.582603
-0.557418
-0.534028
-0.582603
-0.60698
-0.581795
-0.557418
-0.60698
-0.632345
-0.60716
-0.581795
-0.632345
-0.658698
-0.633513
-0.60716
-0.658698
-0.686038
-0.660853
-0.633513
-0.686038
-0.714366
-0.689181
-0.660853
-0.714366
-0.743682
-0.718497
-0.689181
-0.743682
-0.773985
-0.7488
-0.718497
-0.773985
-0.805276
-0.780091
-0.7488
-0.805276
-0.837555
-0.812369
-0.780091
-0.837555
-0.870821
-0.845636
-0.812369
-0.870821
-0.905075
-0.87989
-0.845636
-5.18895
-5.09086
-5.06666
-5.16475
-5.09086
-4.99375
-4.96956
-5.06666
-4.99375
-4.89764
-4.87344
-4.96956
-4.89764
-4.80251
-4.77831
-4.87344
-4.80251
-4.70837
-4.68417
-4.77831
-4.70837
-4.61521
-4.59102
-4.68417
-4.61521
-4.52305
-4.49885
-4.59102
-4.52305
-4.43187
-4.40767
-4.49885
-4.43187
-4.34168
-4.31748
-4.40767
-4.34168
-4.25248
-4.22828
-4.31748
-4.25248
-4.16426
-4.14006
-4.22828
-4.16426
-4.07703
-4.05284
-4.14006
-4.07703
-3.99079
-3.9666
-4.05284
-3.99079
-3.90554
-3.88134
-3.9666
-3.90554
-3.82128
-3.79708
-3.88134
-3.82128
-3.738
-3.7138
-3.79708
-3.738
-3.65571
-3.63151
-3.7138
-3.65571
-3.57441
-3.55021
-3.63151
-3.57441
-3.49409
-3.4699
-3.55021
-3.49409
-3.41477
-3.39057
-3.4699
-3.41477
-3.33643
-3.31223
-3.39057
-3.33643
-3.25908
-3.23488
-3.31223
-3.25908
-3.18272
-3.15852
-3.23488
-3.18272
-3.10734
-3.08314
-3.15852
-3.10734
-3.03295
-3.00875
-3.08314
-3.03295
-2.95955
-2.93535
-3.00875
-2.95955
-2.88714
-2.86294
-2.93535
-2.88714
-2.81571
-2.79152
-2.86294
-2.81571
-2.74528
-2.72108
-2.79152
-2.74528
-2.67583
-2.65163
-2.72108
-2.67583
-2.60736
-2.58317
-2.65163
-2.60736
-2.53989
-2.51569
-2.58317
-2.53989
-2.4734
-2.4492
-2.51569
-2.4734
-2.4079
-2.38371
-2.4492
-2.4079
-2.34339
-2.31919
-2.38371
-2.34339
-2.27987
-2.25567
-2.31919
-2.27987
-2.21733
-2.19313
-2.25567
-2.21733
-2.15578
-2.13158
-2.19313
-2.15578
-2.09522
-2.07102
-2.13158
-2.09522
-2.03565
-2.01145
-2.07102
-2.03565
-1.97706
-1.95287
-2.01145
-1.97706
-1.91946
-1.89527
-1.95287
-1.91946
-1.86285
-1.83866
-1.89527
-1.86285
-1.80723
-1.78303
-1.83866
-1.80723
-1.7526
-1.7284
-1.78303
-1.7526
-1.69895
-1.67475
-1.7284
-1.69895
-1.64629
-1.62209
-1.67475
-1.64629
-1.59462
-1.57042
-1.62209
-1.59462
-1.54393
-1.51974
-1.57042
-1.54393
-1.49424
-1.47004
-1.51974
-1.49424
-1.44553
-1.42133
-1.47004
-1.44553
-1.39781
-1.37361
-1.42133
-1.39781
-1.35107
-1.32687
-1.37361
-1.35107
-1.30533
-1.28113
-1.32687
-1.30533
-1.26057
-1.23637
-1.28113
-1.26057
-1.2168
-1.1926
-1.23637
-1.2168
-1.17401
-1.14982
-1.1926
-1.17401
-1.13222
-1.10802
-1.14982
-1.13222
-1.09141
-1.06721
-1.10802
-1.09141
-1.05159
-1.02739
-1.06721
-1.05159
-1.01276
-0.98856
-1.02739
-1.01276
-0.974912
-0.950715
-0.98856
-0.974912
-0.938055
-0.913858
-0.950715
-0.938055
-0.902186
-0.877988
-0.913858
-0.902186
-0.867304
-0.843106
-0.877988
-0.867304
-0.833409
-0.809212
-0.843106
-0.833409
-0.800503
-0.776305
-0.809212
-0.800503
-0.768584
-0.744386
-0.776305
-0.768584
-0.737653
-0.713455
-0.744386
-0.737653
-0.707709
-0.683511
-0.713455
-0.707709
-0.678753
-0.654555
-0.683511
-0.678753
-0.650785
-0.626587
-0.654555
-0.650785
-0.623804
-0.599606
-0.626587
-0.623804
-0.597811
-0.573613
-0.599606
-0.597811
-0.572805
-0.548608
-0.573613
-0.572805
-0.548788
-0.52459
-0.548608
-0.548788
-0.525758
-0.50156
-0.52459
-0.525758
-0.503715
-0.479518
-0.50156
-0.503715
-0.48266
-0.458463
-0.479518
-0.48266
-0.462593
-0.438396
-0.458463
-0.462593
-0.443514
-0.419316
-0.438396
-0.443514
-0.425422
-0.401224
-0.419316
-0.425422
-0.408318
-0.38412
-0.401224
-0.408318
-0.392201
-0.368004
-0.38412
-0.392201
-0.377072
-0.352875
-0.368004
-0.377072
-0.362931
-0.338734
-0.352875
-0.362931
-0.349778
-0.32558
-0.338734
-0.349778
-0.337612
-0.313414
-0.32558
-0.337612
-0.326434
-0.302236
-0.313414
-0.326434
-0.316243
-0.292046
-0.302236
-0.316243
-0.30704
-0.282843
-0.292046
-0.30704
-0.298825
-0.274627
-0.282843
-0.298825
-0.291597
-0.2674
-0.274627
-0.291597
-0.285357
-0.26116
-0.2674
-0.285357
-0.280105
-0.255908
-0.26116
-0.280105
-0.27584
-0.251643
-0.255908
-0.27584
-0.272563
-0.248366
-0.251643
-0.272563
-0.270274
-0.246077
-0.248366
-0.270274
-0.268972
-0.244775
-0.246077
-0.268972
-0.268658
-0.244461
-0.244775
-0.268658
-0.269332
-0.245134
-0.244461
-0.269332
-0.270993
-0.246796
-0.245134
-0.270993
-0.273642
-0.249445
-0.246796
-0.273642
-0.277279
-0.253081
-0.249445
-0.277279
-0.281903
-0.257705
-0.253081
-0.281903
-0.287515
-0.263317
-0.257705
-0.287515
-0.294114
-0.269917
-0.263317
-0.294114
-0.301702
-0.277504
-0.269917
-0.301702
-0.310277
-0.286079
-0.277504
-0.310277
-0.319839
-0.295641
-0.286079
-0.319839
-0.330389
-0.306192
-0.295641
-0.330389
-0.341927
-0.317729
-0.306192
-0.341927
-0.354452
-0.330255
-0.317729
-0.354452
-0.367966
-0.343768
-0.330255
-0.367966
-0.382466
-0.358269
-0.343768
-0.382466
-0.397955
-0.373757
-0.358269
-0.397955
-0.414431
-0.390233
-0.373757
-0.414431
-0.431895
-0.407697
-0.390233
-0.431895
-0.450346
-0.426149
-0.407697
-0.450346
-0.469785
-0.445588
-0.426149
-0.469785
-0.490212
-0.466014
-0.445588
-0.490212
-0.511626
-0.487429
-0.466014
-0.511626
-0.534028
-0.509831
-0.487429
-0.534028
-0.557418
-0.53322
-0.509831
-0.557418
-0.581795
-0.557598
-0.53322
-0.581795
-0.60716
-0.582963
-0.557598
-0.60716
-0.633513
-0.609315
-0.582963
-0.633513
-0.660853
-0.636656
-0.609315
-0.660853
-0.689181
-0.664984
-0.636656
-0.689181
-0.718497
-0.694299
-0.664984
-0.718497
-0.7488
-0.724602
-0.694299
-0.7488
-0.780091
-0.755893
-0.724602
-0.780091
-0.812369
-0.788172
-0.755893
-0.812369
-0.845636
-0.821438
-0.788172
-0.845636
-0.87989
-0.855692
-0.821438
-5.16475
-5.06666
-5.04345
-5.14154
-5.06666
-4.96956
-4.94635
-5.04345
-4.96956
-4.87344
-4.85023
-4.94635
-4.87344
-4.77831
-4.7551
-4.85023
-4.77831
-4.68417
-4.66096
-4.7551
-4.68417
-4.59102
-4.56781
-4.66096
-4.59102
-4.49885
-4.47564
-4.56781
-4.49885
-4.40767
-4.38446
-4.47564
-4.40767
-4.31748
-4.29427
-4.38446
-4.31748
-4.22828
-4.20507
-4.29427
-4.22828
-4.14006
-4.11685
-4.20507
-4.14006
-4.05284
-4.02963
-4.11685
-4.05284
-3.9666
-3.94339
-4.02963
-3.9666
-3.88134
-3.85813
-3.94339
-3.88134
-3.79708
-3.77387
-3.85813
-3.79708
-3.7138
-3.69059
-3.77387
-3.7138
-3.63151
-3.6083
-3.69059
-3.63151
-3.55021
-3.527
-3.6083
-3.55021
-3.4699
-3.44669
-3.527
-3.4699
-3.39057
-3.36736
-3.44669
-3.39057
-3.31223
-3.28902
-3.36736
-3.31223
-3.23488
-3.21167
-3.28902
-3.23488
-3.15852
-3.13531
-3.21167
-3.15852
-3.08314
-3.05993
-3.13531
-3.08314
-3.00875
-2.98554
-3.05993
-3.00875
-2.93535
-2.91214
-2.98554
-2.93535
-2.86294
-2.83973
-2.91214
-2.86294
-2.79152
-2.76831
-2.83973
-2.79152
-2.72108
-2.69787
-2.76831
-2.72108
-2.65163
-2.62842
-2.69787
-2.65163
-2.58317
-2.55996
-2.62842
-2.58317
-2.51569
-2.49248
-2.55996
-2.51569
-2.4492
-2.42599
-2.49248
-2.4492
-2.38371
-2.3605
-2.42599
-2.38371
-2.31919
-2.29598
-2.3605
-2.31919
-2.25567
-2.23246
-2.29598
-2.25567
-2.19313
-2.16992
-2.23246
-2.19313
-2.13158
-2.10838
-2.16992
-2.13158
-2.07102
-2.04781
-2.10838
-2.07102
-2.01145
-1.98824
-2.04781
-2.01145
-1.95287
-1.92966
-1.98824
-1.95287
-1.89527
-1.87206
-1.92966
-1.89527
-1.83866
-1.81545
-1.87206
-1.83866
-1.78303
-1.75982
-1.81545
-1.78303
-1.7284
-1.70519
-1.75982
-1.7284
-1.67475
-1.65154
-1.70519
-1.67475
-1.62209
-1.59888
-1.65154
-1.62209
-1.57042
-1.54721
-1.59888
-1.57042
-1.51974
-1.49653
-1.54721
-1.51974
-1.47004
-1.44683
-1.49653
-1.47004
-1.42133
-1.39812
-1.44683
-1.42133
-1.37361
-1.3504
-1.39812
-1.37361
-1.32687
-1.30366
-1.3504
-1.32687
-1.28113
-1.25792
-1.30366
-1.28113
-1.23637
-1.21316
-1.25792
-1.23637
-1.1926
-1.16939
-1.21316
-1.1926
-1.14982
-1.12661
-1.16939
-1.14982
-1.10802
-1.08481
-1.12661
-1.10802
-1.06721
-1.044
-1.08481
-1.06721
-1.02739
-1.00418
-1.044
-1.02739
-0.98856
-0.96535
-1.00418
-0.98856
-0.950715
-0.927505
-0.96535
-0.950715
-0.913858
-0.890648
-0.927505
-0.913858
-0.877988
-0.854778
-0.890648
-0.877988
-0.843106
-0.819896
-0.854778
-0.843106
-0.809212
-0.786002
-0.819896
-0.809212
-0.776305
-0.753095
-0.786002
-0.776305
-0.744386
-0.721176
-0.753095
-0.744386
-0.713455
-0.690245
-0.721176
-0.713455
-0.683511
-0.660301
-0.690245
-0.683511
-0.654555
-0.631345
-0.660301
-0.654555
-0.626587
-0.603377
-0.631345
-0.626587
-0.599606
-0.576396
-0.603377
-0.599606
-0.573613
-0.550403
-0.576396
-0.573613
-0.548608
-0.525398
-0.550403
-0.548608
-0.52459
-0.50138
-0.525398
-0.52459
-0.50156
-0.47835
-0.50138
-0.50156
-0.479518
-0.456308
-0.47835
-0.479518
-0.458463
-0.435253
-0.456308
-0.458463
-0.438396
-0.415186
-0.435253
-0.438396
-0.419316
-0.396106
-0.415186
-0.419316
-0.401224
-0.378015
-0.396106
-0.401224
-0.38412
-0.36091
-0.378015
-0.38412
-0.368004
-0.344794
-0.36091
-0.368004
-0.352875
-0.329665
-0.344794
-0.352875
-0.338734
-0.315524
-0.329665
-0.338734
-0.32558
-0.30237
-0.315524
-0.32558
-0.313414
-0.290204
-0.30237
-0.313414
-0.302236
-0.279026
-0.290204
-0.302236
-0.292046
-0.268836
-0.279026
-0.292046
-0.282843
-0.259633
-0.268836
-0.282843
-0.274627
-0.251417
-0.259633
-0.274627
-0.2674
-0.24419
-0.251417
-0.2674
-0.26116
-0.23795
-0.24419
-0.26116
-0.255908
-0.232698
-0.23795
-0.255908
-0.251643
-0.228433
-0.232698
-0.251643
-0.248366
-0.225156
-0.228433
-0.248366
-0.246077
-0.222867
-0.225156
-0.246077
-0.244775
-0.221565
-0.222867
-0.244775
-0.244461
-0.221251
-0.221565
-0.244461
-0.245134
-0.221925
-0.221251
-0.245134
-0.246796
-0.223586
-0.221925
-0.246796
-0.249445
-0.226235
-0.223586
-0.249445
-0.253081
-0.229871
-0.226235
-0.253081
-0.257705
-0.234496
-0.229871
-0.257705
-0.263317
-0.240107
-0.234496
-0.263317
-0.269917
-0.246707
-0.240107
-0.269917
-0.277504
-0.254294
-0.246707
-0.277504
-0.286079
-0.262869
-0.254294
-0.286079
-0.295641
-0.272432
-0.262869
-0.295641
-0.306192
-0.282982
-0.272432
-0.306192
-0.317729
-0.29452
-0.282982
-0.317729
-0.330255
-0.307045
-0.29452
-0.330255
-0.343768
-0.320558
-0.307045
-0.343768
-0.358269
-0.335059
-0.320558
-0.358269
-0.373757
-0.350547
-0.335059
-0.373757
-0.390233
-0.367024
-0.350547
-0.390233
-0.407697
-0.384487
-0.367024
-0.407697
-0.426149
-0.402939
-0.384487
-0.426149
-0.445588
-0.422378
-0.402939
-0.445588
-0.466014
-0.442804
-0.422378
-0.466014
-0.487429
-0.464219
-0.442804
-0.487429
-0.509831
-0.486621
-0.464219
-0.509831
-0.53322
-0.510011
-0.486621
-0.53322