# vtk DataFile Version 1.0
unstructured Grid
ASCII
DATASET UNSTRUCTURED_GRID
POINTS 23424 float 
0 0	 0.0
0.0222222 0	 0.0
0.0222222 0.0222222	 0.0
0 0.0222222	 0.0
0.0222222 0	 0.0
0.0444444 0	 0.0
0.0444444 0.0222222	 0.0
0.0222222 0.0222222	 0.0
0.0444444 0	 0.0
0.0666667 0	 0.0
0.0666667 0.0222222	 0.0
0.0444444 0.0222222	 0.0
0.0666667 0	 0.0
0.0888889 0	 0.0
0.0888889 0.0222222	 0.0
0.0666667 0.0222222	 0.0
0.0888889 0	 0.0
0.111111 0	 0.0
0.111111 0.0222222	 0.0
0.0888889 0.0222222	 0.0
0.111111 0	 0.0
0.133333 0	 0.0
0.133333 0.0222222	 0.0
0.111111 0.0222222	 0.0
0.133333 0	 0.0
0.155556 0	 0.0
0.155556 0.0222222	 0.0
0.133333 0.0222222	 0.0
0.155556 0	 0.0
0.177778 0	 0.0
0.177778 0.0222222	 0.0
0.155556 0.0222222	 0.0
0.177778 0	 0.0
0.2 0	 0.0
0.2 0.0222222	 0.0
0.177778 0.0222222	 0.0
0.2 0	 0.0
0.222222 0	 0.0
0.222222 0.0222222	 0.0
0.2 0.0222222	 0.0
0.222222 0	 0.0
0.244444 0	 0.0
0.244444 0.0222222	 0.0
0.222222 0.0222222	 0.0
0.244444 0	 0.0
0.266667 0	 0.0
0.266667 0.0222222	 0.0
0.244444 0.0222222	 0.0
0.266667 0	 0.0
0.288889 0	 0.0
0.288889 0.0222222	 0.0
0.266667 0.0222222	 0.0
0.288889 0	 0.0
0.311111 0	 0.0
0.311111 0.0222222	 0.0
0.288889 0.0222222	 0.0
0.311111 0	 0.0
0.333333 0	 0.0
0.333333 0.0222222	 0.0
0.311111 0.0222222	 0.0
0.333333 0	 0.0
0.355556 0	 0.0
0.355556 0.0222222	 0.0
0.333333 0.0222222	 0.0
0.355556 0	 0.0
0.377778 0	 0.0
0.377778 0.0222222	 0.0
0.355556 0.0222222	 0.0
0.377778 0	 0.0
0.4 0	 0.0
0.4 0.0222222	 0.0
0.377778 0.0222222	 0.0
0.4 0	 0.0
0.422222 0	 0.0
0.422222 0.0222222	 0.0
0.4 0.0222222	 0.0
0.422222 0	 0.0
0.444444 0	 0.0
0.444444 0.0222222	 0.0
0.422222 0.0222222	 0.0
0.444444 0	 0.0
0.466667 0	 0.0
0.466667 0.0222222	 0.0
0.444444 0.0222222	 0.0
0.466667 0	 0.0
0.488889 0	 0.0
0.488889 0.0222222	 0.0
0.466667 0.0222222	 0.0
0.488889 0	 0.0
0.511111 0	 0.0
0.511111 0.0222222	 0.0
0.488889 0.0222222	 0.0
0.511111 0	 0.0
0.533333 0	 0.0
0.533333 0.0222222	 0.0
0.511111 0.0222222	 0.0
0.533333 0	 0.0
0.555556 0	 0.0
0.555556 0.0222222	 0.0
0.533333 0.0222222	 0.0
0.555556 0	 0.0
0.577778 0	 0.0
0.577778 0.0222222	 0.0
0.555556 0.0222222	 0.0
0.577778 0	 0.0
0.6 0	 0.0
0.6 0.0222222	 0.0
0.577778 0.0222222	 0.0
0.6 0	 0.0
0.622222 0	 0.0
0.622222 0.0222222	 0.0
0.6 0.0222222	 0.0
0.622222 0	 0.0
0.644444 0	 0.0
0.644444 0.0222222	 0.0
0.622222 0.0222222	 0.0
0.644444 0	 0.0
0.666667 0	 0.0
0.666667 0.0222222	 0.0
0.644444 0.0222222	 0.0
0.666667 0	 0.0
0.688889 0	 0.0
0.688889 0.0222222	 0.0
0.666667 0.0222222	 0.0
0.688889 0	 0.0
0.711111 0	 0.0
0.711111 0.0222222	 0.0
0.688889 0.0222222	 0.0
0.711111 0	 0.0
0.733333 0	 0.0
0.733333 0.0222222	 0.0
0.711111 0.0222222	 0.0
0.733333 0	 0.0
0.755556 0	 0.0
0.755556 0.0222222	 0.0
0.733333 0.0222222	 0.0
0.755556 0	 0.0
0.777778 0	 0.0
0.777778 0.0222222	 0.0
0.755556 0.0222222	 0.0
0.777778 0	 0.0
0.8 0	 0.0
0.8 0.0222222	 0.0
0.777778 0.0222222	 0.0
0.8 0	 0.0
0.822222 0	 0.0
0.822222 0.0222222	 0.0
0.8 0.0222222	 0.0
0.822222 0	 0.0
0.844444 0	 0.0
0.844444 0.0222222	 0.0
0.822222 0.0222222	 0.0
0.844444 0	 0.0
0.866667 0	 0.0
0.866667 0.0222222	 0.0
0.844444 0.0222222	 0.0
0.866667 0	 0.0
0.888889 0	 0.0
0.888889 0.0222222	 0.0
0.866667 0.0222222	 0.0
0.888889 0	 0.0
0.911111 0	 0.0
0.911111 0.0222222	 0.0
0.888889 0.0222222	 0.0
0.911111 0	 0.0
0.933333 0	 0.0
0.933333 0.0222222	 0.0
0.911111 0.0222222	 0.0
0.933333 0	 0.0
0.955556 0	 0.0
0.955556 0.0222222	 0.0
0.933333 0.0222222	 0.0
0.955556 0	 0.0
0.977778 0	 0.0
0.977778 0.0222222	 0.0
0.955556 0.0222222	 0.0
0.977778 0	 0.0
1 0	 0.0
1 0.0222222	 0.0
0.977778 0.0222222	 0.0
1 0	 0.0
1.02222 0	 0.0
1.02222 0.0222222	 0.0
1 0.0222222	 0.0
1.02222 0	 0.0
1.04444 0	 0.0
1.04444 0.0222222	 0.0
1.02222 0.0222222	 0.0
1.04444 0	 0.0
1.06667 0	 0.0
1.06667 0.0222222	 0.0
1.04444 0.0222222	 0.0
1.06667 0	 0.0
1.08889 0	 0.0
1.08889 0.0222222	 0.0
1.06667 0.0222222	 0.0
1.08889 0	 0.0
1.11111 0	 0.0
1.11111 0.0222222	 0.0
1.08889 0.0222222	 0.0
1.11111 0	 0.0
1.13333 0	 0.0
1.13333 0.0222222	 0.0
1.11111 0.0222222	 0.0
1.13333 0	 0.0
1.15556 0	 0.0
1.15556 0.0222222	 0.0
1.13333 0.0222222	 0.0
1.15556 0	 0.0
1.17778 0	 0.0
1.17778 0.0222222	 0.0
1.15556 0.0222222	 0.0
1.17778 0	 0.0
1.2 0	 0.0
1.2 0.0222222	 0.0
1.17778 0.0222222	 0.0
1.2 0	 0.0
1.22222 0	 0.0
1.22222 0.0222222	 0.0
1.2 0.0222222	 0.0
1.22222 0	 0.0
1.24444 0	 0.0
1.24444 0.0222222	 0.0
1.22222 0.0222222	 0.0
1.24444 0	 0.0
1.26667 0	 0.0
1.26667 0.0222222	 0.0
1.24444 0.0222222	 0.0
1.26667 0	 0.0
1.28889 0	 0.0
1.28889 0.0222222	 0.0
1.26667 0.0222222	 0.0
1.28889 0	 0.0
1.31111 0	 0.0
1.31111 0.0222222	 0.0
1.28889 0.0222222	 0.0
1.31111 0	 0.0
1.33333 0	 0.0
1.33333 0.0222222	 0.0
1.31111 0.0222222	 0.0
1.33333 0	 0.0
1.35556 0	 0.0
1.35556 0.0222222	 0.0
1.33333 0.0222222	 0.0
1.35556 0	 0.0
1.37778 0	 0.0
1.37778 0.0222222	 0.0
1.35556 0.0222222	 0.0
1.37778 0	 0.0
1.4 0	 0.0
1.4 0.0222222	 0.0
1.37778 0.0222222	 0.0
1.4 0	 0.0
1.42222 0	 0.0
1.42222 0.0222222	 0.0
1.4 0.0222222	 0.0
1.42222 0	 0.0
1.44444 0	 0.0
1.44444 0.0222222	 0.0
1.42222 0.0222222	 0.0
1.44444 0	 0.0
1.46667 0	 0.0
1.46667 0.0222222	 0.0
1.44444 0.0222222	 0.0
1.46667 0	 0.0
1.48889 0	 0.0
1.48889 0.0222222	 0.0
1.46667 0.0222222	 0.0
1.48889 0	 0.0
1.51111 0	 0.0
1.51111 0.0222222	 0.0
1.48889 0.0222222	 0.0
1.51111 0	 0.0
1.53333 0	 0.0
1.53333 0.0222222	 0.0
1.51111 0.0222222	 0.0
1.53333 0	 0.0
1.55556 0	 0.0
1.55556 0.0222222	 0.0
1.53333 0.0222222	 0.0
1.55556 0	 0.0
1.57778 0	 0.0
1.57778 0.0222222	 0.0
1.55556 0.0222222	 0.0
1.57778 0	 0.0
1.6 0	 0.0
1.6 0.0222222	 0.0
1.57778 0.0222222	 0.0
1.6 0	 0.0
1.62222 0	 0.0
1.62222 0.0222222	 0.0
1.6 0.0222222	 0.0
1.62222 0	 0.0
1.64444 0	 0.0
1.64444 0.0222222	 0.0
1.62222 0.0222222	 0.0
1.64444 0	 0.0
1.66667 0	 0.0
1.66667 0.0222222	 0.0
1.64444 0.0222222	 0.0
1.66667 0	 0.0
1.68889 0	 0.0
1.68889 0.0222222	 0.0
1.66667 0.0222222	 0.0
1.68889 0	 0.0
1.71111 0	 0.0
1.71111 0.0222222	 0.0
1.68889 0.0222222	 0.0
1.71111 0	 0.0
1.73333 0	 0.0
1.73333 0.0222222	 0.0
1.71111 0.0222222	 0.0
1.73333 0	 0.0
1.75556 0	 0.0
1.75556 0.0222222	 0.0
1.73333 0.0222222	 0.0
1.75556 0	 0.0
1.77778 0	 0.0
1.77778 0.0222222	 0.0
1.75556 0.0222222	 0.0
1.77778 0	 0.0
1.8 0	 0.0
1.8 0.0222222	 0.0
1.77778 0.0222222	 0.0
1.8 0	 0.0
1.82222 0	 0.0
1.82222 0.0222222	 0.0
1.8 0.0222222	 0.0
1.82222 0	 0.0
1.84444 0	 0.0
1.84444 0.0222222	 0.0
1.82222 0.0222222	 0.0
1.84444 0	 0.0
1.86667 0	 0.0
1.86667 0.0222222	 0.0
1.84444 0.0222222	 0.0
1.86667 0	 0.0
1.88889 0	 0.0
1.88889 0.0222222	 0.0
1.86667 0.0222222	 0.0
1.88889 0	 0.0
1.91111 0	 0.0
1.91111 0.0222222	 0.0
1.88889 0.0222222	 0.0
1.91111 0	 0.0
1.93333 0	 0.0
1.93333 0.0222222	 0.0
1.91111 0.0222222	 0.0
1.93333 0	 0.0
1.95556 0	 0.0
1.95556 0.0222222	 0.0
1.93333 0.0222222	 0.0
1.95556 0	 0.0
1.97778 0	 0.0
1.97778 0.0222222	 0.0
1.95556 0.0222222	 0.0
1.97778 0	 0.0
2 0	 0.0
2 0.0222222	 0.0
1.97778 0.0222222	 0.0
2 0	 0.0
2.02222 0	 0.0
2.02222 0.0222222	 0.0
2 0.0222222	 0.0
2.02222 0	 0.0
2.04444 0	 0.0
2.04444 0.0222222	 0.0
2.02222 0.0222222	 0.0
2.04444 0	 0.0
2.06667 0	 0.0
2.06667 0.0222222	 0.0
2.04444 0.0222222	 0.0
2.06667 0	 0.0
2.08889 0	 0.0
2.08889 0.0222222	 0.0
2.06667 0.0222222	 0.0
2.08889 0	 0.0
2.11111 0	 0.0
2.11111 0.0222222	 0.0
2.08889 0.0222222	 0.0
2.11111 0	 0.0
2.13333 0	 0.0
2.13333 0.0222222	 0.0
2.11111 0.0222222	 0.0
2.13333 0	 0.0
2.15556 0	 0.0
2.15556 0.0222222	 0.0
2.13333 0.0222222	 0.0
2.15556 0	 0.0
2.17778 0	 0.0
2.17778 0.0222222	 0.0
2.15556 0.0222222	 0.0
2.17778 0	 0.0
2.2 0	 0.0
2.2 0.0222222	 0.0
2.17778 0.0222222	 0.0
2.2 0	 0.0
2.22222 0	 0.0
2.22222 0.0222222	 0.0
2.2 0.0222222	 0.0
2.22222 0	 0.0
2.24444 0	 0.0
2.24444 0.0222222	 0.0
2.22222 0.0222222	 0.0
2.24444 0	 0.0
2.26667 0	 0.0
2.26667 0.0222222	 0.0
2.24444 0.0222222	 0.0
2.26667 0	 0.0
2.28889 0	 0.0
2.28889 0.0222222	 0.0
2.26667 0.0222222	 0.0
2.28889 0	 0.0
2.31111 0	 0.0
2.31111 0.0222222	 0.0
2.28889 0.0222222	 0.0
2.31111 0	 0.0
2.33333 0	 0.0
2.33333 0.0222222	 0.0
2.31111 0.0222222	 0.0
2.33333 0	 0.0
2.35556 0	 0.0
2.35556 0.0222222	 0.0
2.33333 0.0222222	 0.0
2.35556 0	 0.0
2.37778 0	 0.0
2.37778 0.0222222	 0.0
2.35556 0.0222222	 0.0
2.37778 0	 0.0
2.4 0	 0.0
2.4 0.0222222	 0.0
2.37778 0.0222222	 0.0
2.4 0	 0.0
2.42222 0	 0.0
2.42222 0.0222222	 0.0
2.4 0.0222222	 0.0
2.42222 0	 0.0
2.44444 0	 0.0
2.44444 0.0222222	 0.0
2.42222 0.0222222	 0.0
2.44444 0	 0.0
2.46667 0	 0.0
2.46667 0.0222222	 0.0
2.44444 0.0222222	 0.0
2.46667 0	 0.0
2.48889 0	 0.0
2.48889 0.0222222	 0.0
2.46667 0.0222222	 0.0
2.48889 0	 0.0
2.51111 0	 0.0
2.51111 0.0222222	 0.0
2.48889 0.0222222	 0.0
2.51111 0	 0.0
2.53333 0	 0.0
2.53333 0.0222222	 0.0
2.51111 0.0222222	 0.0
2.53333 0	 0.0
2.55556 0	 0.0
2.55556 0.0222222	 0.0
2.53333 0.0222222	 0.0
2.55556 0	 0.0
2.57778 0	 0.0
2.57778 0.0222222	 0.0
2.55556 0.0222222	 0.0
2.57778 0	 0.0
2.6 0	 0.0
2.6 0.0222222	 0.0
2.57778 0.0222222	 0.0
2.6 0	 0.0
2.62222 0	 0.0
2.62222 0.0222222	 0.0
2.6 0.0222222	 0.0
2.62222 0	 0.0
2.64444 0	 0.0
2.64444 0.0222222	 0.0
2.62222 0.0222222	 0.0
2.64444 0	 0.0
2.66667 0	 0.0
2.66667 0.0222222	 0.0
2.64444 0.0222222	 0.0
2.66667 0	 0.0
2.68889 0	 0.0
2.68889 0.0222222	 0.0
2.66667 0.0222222	 0.0
2.68889 0	 0.0
2.71111 0	 0.0
2.71111 0.0222222	 0.0
2.68889 0.0222222	 0.0
2.71111 0	 0.0
2.73333 0	 0.0
2.73333 0.0222222	 0.0
2.71111 0.0222222	 0.0
2.73333 0	 0.0
2.75556 0	 0.0
2.75556 0.0222222	 0.0
2.73333 0.0222222	 0.0
2.75556 0	 0.0
2.77778 0	 0.0
2.77778 0.0222222	 0.0
2.75556 0.0222222	 0.0
2.77778 0	 0.0
2.8 0	 0.0
2.8 0.0222222	 0.0
2.77778 0.0222222	 0.0
2.8 0	 0.0
2.82222 0	 0.0
2.82222 0.0222222	 0.0
2.8 0.0222222	 0.0
2.82222 0	 0.0
2.84444 0	 0.0
2.84444 0.0222222	 0.0
2.82222 0.0222222	 0.0
2.84444 0	 0.0
2.86667 0	 0.0
2.86667 0.0222222	 0.0
2.84444 0.0222222	 0.0
2.86667 0	 0.0
2.88889 0	 0.0
2.88889 0.0222222	 0.0
2.86667 0.0222222	 0.0
2.88889 0	 0.0
2.91111 0	 0.0
2.91111 0.0222222	 0.0
2.88889 0.0222222	 0.0
2.91111 0	 0.0
[...]
POINT_DATA 23424
SCALARS levelset_first float
LOOKUP_TABLE default
-5.81743
-5.71371
-5.68754
-5.79125
-5.71371
-5.61099
-5.58481
-5.68754
-5.61099
-5.50925
-5.48308
-5.58481
-5.50925
-5.4085
-5.38233
-5.48308
-5.4085
-5.30874
-5.28256
-5.38233
-5.30874
-5.20996
-5.18379
-5.28256
-5.20996
-5.11217
-5.086
-5.18379
-5.11217
-5.01537
-4.9892
-5.086
-5.01537
-4.91956
-4.89339
-4.9892
-4.91956
-4.82474
-4.79856
-4.89339
-4.82474
-4.7309
-4.70473
-4.79856
-4.7309
-4.63805
-4.61188
-4.70473
-4.63805
-4.54619
-4.52002
-4.61188
-4.54619
-4.45532
-4.42914
-4.52002
-4.45532
-4.36543
-4.33926
-4.42914
-4.36543
-4.27653
-4.25036
-4.33926
-4.27653
-4.18862
-4.16245
-4.25036
-4.18862
-4.1017
-4.07553
-4.16245
-4.1017
-4.01576
-3.98959
-4.07553
-4.01576
-3.93081
-3.90464
-3.98959
-3.93081
-3.84685
-3.82068
-3.90464
-3.84685
-3.76388
-3.73771
-3.82068
-3.76388
-3.6819
-3.65572
-3.73771
-3.6819
-3.6009
-3.57473
-3.65572
-3.6009
-3.52089
-3.49472
-3.57473
-3.52089
-3.44187
-3.4157
-3.49472
-3.44187
-3.36383
-3.33766
-3.4157
-3.36383
-3.28679
-3.26062
-3.33766
-3.28679
-3.21073
-3.18456
-3.26062
-3.21073
-3.13566
-3.10949
-3.18456
-3.13566
-3.06157
-3.0354
-3.10949
-3.06157
-2.98848
-2.96231
-3.0354
-2.98848
-2.91637
-2.8902
-2.96231
-2.91637
-2.84525
-2.81908
-2.8902
-2.84525
-2.77512
-2.74894
-2.81908
-2.77512
-2.70597
-2.6798
-2.74894
-2.70597
-2.63781
-2.61164
-2.6798
-2.63781
-2.57064
-2.54447
-2.61164
-2.57064
-2.50446
-2.47829
-2.54447
-2.50446
-2.43927
-2.41309
-2.47829
-2.43927
-2.37506
-2.34889
-2.41309
-2.37506
-2.31184
-2.28567
-2.34889
-2.31184
-2.24961
-2.22344
-2.28567
-2.24961
-2.18836
-2.16219
-2.22344
-2.18836
-2.12811
-2.10193
-2.16219
-2.12811
-2.06884
-2.04267
-2.10193
-2.06884
-2.01056
-1.98438
-2.04267
-2.01056
-1.95326
-1.92709
-1.98438
-1.95326
-1.89696
-1.87079
-1.92709
-1.89696
-1.84164
-1.81547
-1.87079
-1.84164
-1.78731
-1.76114
-1.81547
-1.78731
-1.73397
-1.70779
-1.76114
-1.73397
-1.68161
-1.65544
-1.70779
-1.68161
-1.63024
-1.60407
-1.65544
-1.63024
-1.57986
-1.55369
-1.60407
-1.57986
-1.53047
-1.5043
-1.55369
-1.53047
-1.48207
-1.45589
-1.5043
-1.48207
-1.43465
-1.40848
-1.45589
-1.43465
-1.38822
-1.36205
-1.40848
-1.38822
-1.34278
-1.31661
-1.36205
-1.34278
-1.29833
-1.27215
-1.31661
-1.29833
-1.25486
-1.22869
-1.27215
-1.25486
-1.21238
-1.18621
-1.22869
-1.21238
-1.17089
-1.14472
-1.18621
-1.17089
-1.13039
-1.10421
-1.14472
-1.13039
-1.09087
-1.0647
-1.10421
-1.09087
-1.05234
-1.02617
-1.0647
-1.05234
-1.0148
-0.988629
-1.02617
-1.0148
-0.978249
-0.952076
-0.988629
-0.978249
-0.942684
-0.916511
-0.952076
-0.942684
-0.908107
-0.881934
-0.916511
-0.908107
-0.874517
-0.848344
-0.881934
-0.874517
-0.841915
-0.815742
-0.848344
-0.841915
-0.8103
-0.784127
-0.815742
-0.8103
-0.779673
-0.753501
-0.784127
-0.779673
-0.750034
-0.723861
-0.753501
-0.750034
-0.721383
-0.69521
-0.723861
-0.721383
-0.693719
-0.667546
-0.69521
-0.693719
-0.667043
-0.64087
-0.667546
-0.667043
-0.641354
-0.615181
-0.64087
-0.641354
-0.616653
-0.59048
-0.615181
-0.616653
-0.59294
-0.566767
-0.59048
-0.59294
-0.570214
-0.544042
-0.566767
-0.570214
-0.548477
-0.522304
-0.544042
-0.548477
-0.527726
-0.501553
-0.522304
-0.527726
-0.507964
-0.481791
-0.501553
-0.507964
-0.489189
-0.463016
-0.481791
-0.489189
-0.471401
-0.445229
-0.463016
-0.471401
-0.454602
-0.428429
-0.445229
-0.454602
-0.43879
-0.412617
-0.428429
-0.43879
-0.423965
-0.397793
-0.412617
-0.423965
-0.410129
-0.383956
-0.397793
-0.410129
-0.39728
-0.371107
-0.383956
-0.39728
-0.385418
-0.359245
-0.371107
-0.385418
-0.374545
-0.348372
-0.359245
-0.374545
-0.364658
-0.338486
-0.348372
-0.364658
-0.35576
-0.329587
-0.338486
-0.35576
-0.347849
-0.321676
-0.329587
-0.347849
-0.340926
-0.314753
-0.321676
-0.340926
-0.334991
-0.308818
-0.314753
-0.334991
-0.330043
-0.30387
-0.308818
-0.330043
-0.326083
-0.29991
-0.30387
-0.326083
-0.32311
-0.296937
-0.29991
-0.32311
-0.321125
-0.294953
-0.296937
-0.321125
-0.320128
-0.293955
-0.294953
-0.320128
-0.320119
-0.293946
-0.293955
-0.320119
-0.321097
-0.294924
-0.293946
-0.321097
-0.323063
-0.29689
-0.294924
-0.323063
-0.326016
-0.299843
-0.29689
-0.326016
-0.329957
-0.303784
-0.299843
-0.329957
-0.334886
-0.308713
-0.303784
-0.334886
-0.340802
-0.314629
-0.308713
-0.340802
-0.347706
-0.321534
-0.314629
-0.347706
-0.355598
-0.329425
-0.321534
-0.355598
-0.364477
-0.338305
-0.329425
-0.364477
-0.374344
-0.348172
-0.338305
-0.374344
-0.385199
-0.359026
-0.348172
-0.385199
-0.397041
-0.370869
-0.359026
-0.397041
-0.409871
-0.383699
-0.370869
-0.409871
-0.423689
-0.397516
-0.383699
-0.423689
-0.438494
-0.412321
-0.397516
-0.438494
-0.454287
-0.428114
-0.412321
-0.454287
-0.471068
-0.444895
-0.428114
-0.471068
-0.488836
-0.462663
-0.444895
-0.488836
-0.507592
-0.481419
-0.462663
-0.507592
-0.527336
-0.501163
-0.481419
-0.527336
-0.548067
-0.521894
-0.501163
-0.548067
-0.569786
-0.543613
-0.521894
-0.569786
-0.592492
-0.566319
-0.543613
-0.592492
-0.616186
-0.590013
-0.566319
-0.616186
-0.640868
-0.614695
-0.590013
-0.640868
-0.666538
-0.640365
-0.614695
-0.666538
-0.693195
-0.667022
-0.640365
-0.693195
-0.72084
-0.694667
-0.667022
-0.72084
-0.749472
-0.723299
-0.694667
-5.79125
-5.68754
-5.66235
-5.76607
-5.68754
-5.58481
-5.55963
-5.66235
-5.58481
-5.48308
-5.45789
-5.55963
-5.48308
-5.38233
-5.35714
-5.45789
-5.38233
-5.28256
-5.25738
-5.35714
-5.28256
-5.18379
-5.1586
-5.25738
-5.18379
-5.086
-5.06082
-5.1586
-5.086
-4.9892
-4.96402
-5.06082
-4.9892
-4.89339
-4.8682
-4.96402
-4.89339
-4.79856
-4.77338
-4.8682
-4.79856
-4.70473
-4.67954
-4.77338
-4.70473
-4.61188
-4.58669
-4.67954
-4.61188
-4.52002
-4.49483
-4.58669
-4.52002
-4.42914
-4.40396
-4.49483
-4.42914
-4.33926
-4.31407
-4.40396
-4.33926
-4.25036
-4.22517
-4.31407
-4.25036
-4.16245
-4.13726
-4.22517
-4.16245
-4.07553
-4.05034
-4.13726
-4.07553
-3.98959
-3.9644
-4.05034
-3.98959
-3.90464
-3.87946
-3.9644
-3.90464
-3.82068
-3.7955
-3.87946
-3.82068
-3.73771
-3.71252
-3.7955
-3.73771
-3.65572
-3.63054
-3.71252
-3.65572
-3.57473
-3.54954
-3.63054
-3.57473
-3.49472
-3.46953
-3.54954
-3.49472
-3.4157
-3.39051
-3.46953
-3.4157
-3.33766
-3.31248
-3.39051
-3.33766
-3.26062
-3.23543
-3.31248
-3.26062
-3.18456
-3.15937
-3.23543
-3.18456
-3.10949
-3.0843
-3.15937
-3.10949
-3.0354
-3.01022
-3.0843
-3.0354
-2.96231
-2.93712
-3.01022
-2.96231
-2.8902
-2.86501
-2.93712
-2.8902
-2.81908
-2.79389
-2.86501
-2.81908
-2.74894
-2.72376
-2.79389
-2.74894
-2.6798
-2.65461
-2.72376
-2.6798
-2.61164
-2.58646
-2.65461
-2.61164
-2.54447
-2.51929
-2.58646
-2.54447
-2.47829
-2.4531
-2.51929
-2.47829
-2.41309
-2.38791
-2.4531
-2.41309
-2.34889
-2.3237
-2.38791
-2.34889
-2.28567
-2.26048
-2.3237
-2.28567
-2.22344
-2.19825
-2.26048
-2.22344
-2.16219
-2.13701
-2.19825
-2.16219
-2.10193
-2.07675
-2.13701
-2.10193
-2.04267
-2.01748
-2.07675
-2.04267
-1.98438
-1.9592
-2.01748
-1.98438
-1.92709
-1.90191
-1.9592
-1.92709
-1.87079
-1.8456
-1.90191
-1.87079
-1.81547
-1.79028
-1.8456
-1.81547
-1.76114
-1.73595
-1.79028
-1.76114
-1.70779
-1.68261
-1.73595
-1.70779
-1.65544
-1.63025
-1.68261
-1.65544
-1.60407
-1.57889
-1.63025
-1.60407
-1.55369
-1.52851
-1.57889
-1.55369
-1.5043
-1.47911
-1.52851
-1.5043
-1.45589
-1.43071
-1.47911
-1.45589
-1.40848
-1.38329
-1.43071
-1.40848
-1.36205
-1.33686
-1.38329
-1.36205
-1.31661
-1.29142
-1.33686
-1.31661
-1.27215
-1.24697
-1.29142
-1.27215
-1.22869
-1.2035
-1.24697
-1.22869
-1.18621
-1.16102
-1.2035
-1.18621
-1.14472
-1.11953
-1.16102
-1.14472
-1.10421
-1.07903
-1.11953
-1.10421
-1.0647
-1.03951
-1.07903
-1.0647
-1.02617
-1.00098
-1.03951
-1.02617
-0.988629
-0.963444
-1.00098
-0.988629
-0.952076
-0.926891
-0.963444
-0.952076
-0.916511
-0.891326
-0.926891
-0.916511
-0.881934
-0.856749
-0.891326
-0.881934
-0.848344
-0.823159
-0.856749
-0.848344
-0.815742
-0.790557
-0.823159
-0.815742
-0.784127
-0.758942
-0.790557
-0.784127
-0.753501
-0.728315
-0.758942
-0.753501
-0.723861
-0.698676
-0.728315
-0.723861
-0.69521
-0.670025
-0.698676
-0.69521
-0.667546
-0.642361
-0.670025
-0.667546
-0.64087
-0.615685
-0.642361
-0.64087
-0.615181
-0.589996
-0.615685
-0.615181
-0.59048
-0.565295
-0.589996
-0.59048
-0.566767
-0.541582
-0.565295
-0.566767
-0.544042
-0.518856
-0.541582
-0.544042
-0.522304
-0.497119
-0.518856
-0.522304
-0.501553
-0.476368
-0.497119
-0.501553
-0.481791
-0.456606
-0.476368
-0.481791
-0.463016
-0.437831
-0.456606
-0.463016
-0.445229
-0.420043
-0.437831
-0.445229
-0.428429
-0.403244
-0.420043
-0.428429
-0.412617
-0.387432
-0.403244
-0.412617
-0.397793
-0.372607
-0.387432
-0.397793
-0.383956
-0.358771
-0.372607
-0.383956
-0.371107
-0.345922
-0.358771
-0.371107
-0.359245
-0.33406
-0.345922
-0.359245
-0.348372
-0.323187
-0.33406
-0.348372
-0.338486
-0.3133
-0.323187
-0.338486
-0.329587
-0.304402
-0.3133
-0.329587
-0.321676
-0.296491
-0.304402
-0.321676
-0.314753
-0.289568
-0.296491
-0.314753
-0.308818
-0.283633
-0.289568
-0.308818
-0.30387
-0.278685
-0.283633
-0.30387
-0.29991
-0.274725
-0.278685
-0.29991
-0.296937
-0.271752
-0.274725
-0.296937
-0.294953
-0.269767
-0.271752
-0.294953
-0.293955
-0.26877
-0.269767
-0.293955
-0.293946
-0.268761
-0.26877
-0.293946
-0.294924
-0.269739
-0.268761
-0.294924
-0.29689
-0.271705
-0.269739
-0.29689
-0.299843
-0.274658
-0.271705
-0.299843
-0.303784
-0.278599
-0.274658
-0.303784
-0.308713
-0.283528
-0.278599
-0.308713
-0.314629
-0.289444
-0.283528
-0.314629
-0.321534
-0.296348
-0.289444
-0.321534
-0.329425
-0.30424
-0.296348
-0.329425
-0.338305
-0.313119
-0.30424
-0.338305
-0.348172
-0.322986
-0.313119
-0.348172
-0.359026
-0.333841
-0.322986
-0.359026
-0.370869
-0.345683
-0.333841
-0.370869
-0.383699
-0.358513
-0.345683
-0.383699
-0.397516
-0.372331
-0.358513
-0.397516
-0.412321
-0.387136
-0.372331
-0.412321
-0.428114
-0.402929
-0.387136
-0.428114
-0.444895
-0.41971
-0.402929
-0.444895
-0.462663
-0.437478
-0.41971
-0.462663
-0.481419
-0.456234
-0.437478
-0.481419
-0.501163
-0.475978
-0.456234
-0.501163
-0.521894
-0.496709
-0.475978
-0.521894
-0.543613
-0.518428
-0.496709
-0.543613
-0.566319
-0.541134
-0.518428
-0.566319
-0.590013
-0.564828
-0.541134
-0.590013
-0.614695
-0.58951
-0.564828
-0.614695
-0.640365
-0.61518
-0.58951
-0.640365
-0.667022
-0.641837
-0.61518
-0.667022
-0.694667
-0.669482
-0.641837
-0.694667
-0.723299
-0.698114
-0.669482
-5.76607
-5.66235
-5.63816
-5.74187
-5.66235
-5.55963
-5.53543
-5.63816
-5.55963
-5.45789
-5.43369
-5.53543
-5.45789
-5.35714
-5.33294
-5.43369
-5.35714
-5.25738
-5.23318
-5.33294
-5.25738
-5.1586
-5.13441
-5.23318
-5.1586
-5.06082
-5.03662
-5.13441
-5.06082
-4.96402
-4.93982
-5.03662
-4.96402
-4.8682
-4.84401
-4.93982
-4.8682
-4.77338
-4.74918
-4.84401
-4.77338
-4.67954
-4.65535
-4.74918
-4.67954
-4.58669
-4.5625
-4.65535
-4.58669
-4.49483
-4.47063
-4.5625
-4.49483
-4.40396
-4.37976
-4.47063
-4.40396
-4.31407
-4.28987
-4.37976
-4.31407
-4.22517
-4.20098
-4.28987
-4.22517
-4.13726
-4.11307
-4.20098
-4.13726
-4.05034
-4.02614
-4.11307
-4.05034
-3.9644
-3.94021
-4.02614
-3.9644
-3.87946
-3.85526
-3.94021
-3.87946
-3.7955
-3.7713
-3.85526
-3.7955
-3.71252
-3.68833
-3.7713
-3.71252
-3.63054
-3.60634
-3.68833
-3.63054
-3.54954
-3.52534
-3.60634
-3.54954
-3.46953
-3.44534
-3.52534
-3.46953
-3.39051
-3.36631
-3.44534
-3.39051
-3.31248
-3.28828
-3.36631
-3.31248
-3.23543
-3.21123
-3.28828
-3.23543
-3.15937
-3.13517
-3.21123
-3.15937
-3.0843
-3.0601
-3.13517
-3.0843
-3.01022
-2.98602
-3.0601
-3.01022
-2.93712
-2.91292
-2.98602
-2.93712
-2.86501
-2.84081
-2.91292
-2.86501
-2.79389
-2.76969
-2.84081
-2.79389
-2.72376
-2.69956
-2.76969
-2.72376
-2.65461
-2.63042
-2.69956
-2.65461
-2.58646
-2.56226
-2.63042
-2.58646
-2.51929
-2.49509
-2.56226
-2.51929
-2.4531
-2.42891
-2.49509
-2.4531
-2.38791
-2.36371
-2.42891
-2.38791
-2.3237
-2.2995
-2.36371
-2.3237
-2.26048
-2.23628
-2.2995
-2.26048
-2.19825
-2.17405
-2.23628
-2.19825
-2.13701
-2.11281
-2.17405
-2.13701
-2.07675
-2.05255
-2.11281
-2.07675
-2.01748
-1.99328
-2.05255
-2.01748
-1.9592
-1.935
-1.99328
-1.9592
-1.90191
-1.87771
-1.935
-1.90191
-1.8456
-1.8214
-1.87771
-1.8456
-1.79028
-1.76608
-1.8214
-1.79028
-1.73595
-1.71175
-1.76608
-1.73595
-1.68261
-1.65841
-1.71175
-1.68261
-1.63025
-1.60606
-1.65841
-1.63025
-1.57889
-1.55469
-1.60606
-1.57889
-1.52851
-1.50431
-1.55469
-1.52851
-1.47911
-1.45492
-1.50431
-1.47911
-1.43071
-1.40651
-1.45492
-1.43071
-1.38329
-1.35909
-1.40651
-1.38329
-1.33686
-1.31267
-1.35909
-1.33686
-1.29142
-1.26722
-1.31267
-1.29142
-1.24697
-1.22277
-1.26722
-1.24697
-1.2035
-1.1793
-1.22277
-1.2035
-1.16102
-1.13682
-1.1793
-1.16102
-1.11953
-1.09533
-1.13682
-1.11953
-1.07903
-1.05483
-1.09533
-1.07903
-1.03951
-1.01531
-1.05483
-1.03951
-1.00098
-0.976787
-1.01531
-1.00098
-0.963444
-0.939246
-0.976787
-0.963444
-0.926891
-0.902694
-0.939246
-0.926891
-0.891326
-0.867129
-0.902694
-0.891326
-0.856749
-0.832551
-0.867129
-0.856749
-0.823159
-0.798961
-0.832551
-0.823159
-0.790557
-0.766359
-0.798961
-0.790557
-0.758942
-0.734745
-0.766359
-0.758942
-0.728315
-0.704118
-0.734745
-0.728315
-0.698676
-0.674479
-0.704118
-0.698676
-0.670025
-0.645827
-0.674479
-0.670025
-0.642361
-0.618163
-0.645827
-0.642361
-0.615685
-0.591487
-0.618163
-0.615685
-0.589996
-0.565799
-0.591487
-0.589996
-0.565295
-0.541098
-0.565799
-0.565295
-0.541582
-0.517385
-0.541098
-0.541582
-0.518856
-0.494659
-0.517385
-0.518856
-0.497119
-0.472921
-0.494659
-0.497119
-0.476368
-0.452171
-0.472921
-0.476368
-0.456606
-0.432408
-0.452171
-0.456606
-0.437831
-0.413633
-0.432408
-0.437831
-0.420043
-0.395846
-0.413633
-0.420043
-0.403244
-0.379046
-0.395846
-0.403244
-0.387432
-0.363234
-0.379046
-0.387432
-0.372607
-0.34841
-0.363234
-0.372607
-0.358771
-0.334573
-0.34841
-0.358771
-0.345922
-0.321724
-0.334573
-0.345922
-0.33406
-0.309863
-0.321724
-0.33406
-0.323187
-0.298989
-0.309863
-0.323187
-0.3133
-0.289103
-0.298989
-0.3133
-0.304402
-0.280205
-0.289103
-0.304402
-0.296491
-0.272294
-0.280205
-0.296491
-0.289568
-0.265371
-0.272294
-0.289568
-0.283633
-0.259435
-0.265371
-0.283633
-0.278685
-0.254487
-0.259435
-0.278685
-0.274725
-0.250527
-0.254487
-0.274725
-0.271752
-0.247555
-0.250527
-0.271752
-0.269767
-0.24557
-0.247555
-0.269767
-0.26877
-0.244573
-0.24557
-0.26877
-0.268761
-0.244563
-0.244573
-0.268761
-0.269739
-0.245541
-0.244563
-0.269739
-0.271705
-0.247507
-0.245541
-0.271705
-0.274658
-0.250461
-0.247507
-0.274658
-0.278599
-0.254402
-0.250461
-0.278599
-0.283528
-0.25933
-0.254402
-0.283528
-0.289444
-0.265247
-0.25933
-0.289444
-0.296348
-0.272151
-0.265247
-0.296348
-0.30424
-0.280042
-0.272151
-0.30424
-0.313119
-0.288922
-0.280042
-0.313119
-0.322986
-0.298789
-0.288922
-0.322986
-0.333841
-0.309644
-0.298789
-0.333841
-0.345683
-0.321486
-0.309644
-0.345683
-0.358513
-0.334316
-0.321486
-0.358513
-0.372331
-0.348133
-0.334316
-0.372331
-0.387136
-0.362939
-0.348133
-0.387136
-0.402929
-0.378732
-0.362939
-0.402929
-0.41971
-0.395512
-0.378732
-0.41971
-0.437478
-0.413281
-0.395512
-0.437478
-0.456234
-0.432036
-0.413281
-0.456234
-0.475978
-0.45178
-0.432036
-0.475978
-0.496709
-0.472511
-0.45178
-0.496709
-0.518428
-0.49423
-0.472511
-0.518428
-0.541134
-0.516937
-0.49423
-0.541134
-0.564828
-0.540631
-0.516937
-0.564828
-0.58951
-0.565313
-0.540631
-0.58951
-0.61518
-0.590982
-0.565313
-0.61518
-0.641837
-0.617639
-0.590982
-0.641837
-0.669482
-0.645284
-0.617639
-0.669482
-0.698114
-0.673916
-0.645284
-5.74187
-5.63816
-5.61495
-5.71866
-5.63816
-5.53543
-5.51222
-5.61495
-5.53543
-5.43369
-5.41048
-5.51222
-5.43369
-5.33294
-5.30973
-5.41048
-5.33294
-5.23318
-5.20997
-5.30973
-5.23318
-5.13441
-5.1112
-5.20997
-5.13441
-5.03662
-5.01341
-5.1112
-5.03662
-4.93982
-4.91661
-5.01341
-4.93982
-4.84401
-4.8208
-4.91661
-4.84401
-4.74918
-4.72597
-4.8208
-4.74918
-4.65535
-4.63214
-4.72597
-4.65535
-4.5625
-4.53929
-4.63214
-4.5625
-4.47063
-4.44742
-4.53929
-4.47063
-4.37976
-4.35655
-4.44742
-4.37976
-4.28987
-4.26667
-4.35655
-4.28987
-4.20098
-4.17777
-4.26667
-4.20098
-4.11307
-4.08986
-4.17777
-4.11307
-4.02614
-4.00293
-4.08986
-4.02614
-3.94021
-3.917
-4.00293
-3.94021
-3.85526
-3.83205
-3.917
-3.85526
-3.7713
-3.74809
-3.83205
-3.7713
-3.68833
-3.66512
-3.74809
-3.68833
-3.60634
-3.58313
-3.66512
-3.60634
-3.52534
-3.50213
-3.58313
-3.52534
-3.44534
-3.42213
-3.50213
-3.44534
-3.36631
-3.3431
-3.42213
-3.36631
-3.28828
-3.26507
-3.3431
-3.28828
-3.21123
-3.18802
-3.26507
-3.21123
-3.13517
-3.11196
-3.18802
-3.13517
-3.0601
-3.03689
-3.11196
-3.0601
-2.98602
-2.96281
-3.03689
-2.98602
-2.91292
-2.88971
-2.96281
-2.91292
-2.84081
-2.8176
-2.88971
-2.84081
-2.76969
-2.74648
-2.8176
-2.76969
-2.69956
-2.67635
-2.74648
-2.69956
-2.63042
-2.60721
-2.67635
-2.63042
-2.56226
-2.53905
-2.60721
-2.56226
-2.49509
-2.47188
-2.53905
-2.49509
-2.42891
-2.4057
-2.47188
-2.42891
-2.36371
-2.3405
-2.4057
-2.36371
-2.2995
-2.27629
-2.3405
-2.2995
-2.23628
-2.21307
-2.27629
-2.23628
-2.17405
-2.15084
-2.21307
-2.17405
-2.11281
-2.0896
-2.15084
-2.11281
-2.05255
-2.02934
-2.0896
-2.05255
-1.99328
-1.97007
-2.02934
-1.99328
-1.935
-1.91179
-1.97007
-1.935
-1.87771
-1.8545
-1.91179
-1.87771
-1.8214
-1.79819
-1.8545
-1.8214
-1.76608
-1.74287
-1.79819
-1.76608
-1.71175
-1.68854
-1.74287
-1.71175
-1.65841
-1.6352
-1.68854
-1.65841
-1.60606
-1.58285
-1.6352
-1.60606
-1.55469
-1.53148
-1.58285
-1.55469
-1.50431
-1.4811
-1.53148
-1.50431
-1.45492
-1.43171
-1.4811
-1.45492
-1.40651
-1.3833
-1.43171
-1.40651
-1.35909
-1.33588
-1.3833
-1.35909
-1.31267
-1.28946
-1.33588
-1.31267
-1.26722
-1.24401
-1.28946
-1.26722
-1.22277
-1.19956
-1.24401
-1.22277
-1.1793
-1.15609
-1.19956
-1.1793
-1.13682
-1.11361
-1.15609
-1.13682
-1.09533
-1.07212
-1.11361
-1.09533
-1.05483
-1.03162
-1.07212
-1.05483
-1.01531
-0.992105
-1.03162
-1.01531
-0.976787
-0.953577
-0.992105
-0.976787
-0.939246
-0.916036
-0.953577
-0.939246
-0.902694
-0.879484
-0.916036
-0.902694
-0.867129
-0.843919
-0.879484
-0.867129
-0.832551
-0.809341
-0.843919
-0.832551
-0.798961
-0.775751
-0.809341
-0.798961
-0.766359
-0.743149
-0.775751
-0.766359
-0.734745
-0.711535
-0.743149
-0.734745
-0.704118
-0.680908
-0.711535
-0.704118
-0.674479
-0.651269
-0.680908
-0.674479
-0.645827
-0.622617
-0.651269
-0.645827
-0.618163
-0.594953
-0.622617
-0.618163
-0.591487
-0.568277
-0.594953
-0.591487
-0.565799
-0.542589
-0.568277
-0.565799
-0.541098
-0.517888
-0.542589
-0.541098
-0.517385
-0.494175
-0.517888
-0.517385
-0.494659
-0.471449
-0.494175
-0.494659
-0.472921
-0.449711
-0.471449
-0.472921
-0.452171
-0.428961
-0.449711
-0.452171
-0.432408
-0.409198
-0.428961
-0.432408
-0.413633
-0.390423
-0.409198
-0.413633
-0.395846
-0.372636
-0.390423
-0.395846
-0.379046
-0.355836
-0.372636
-0.379046
-0.363234
-0.340024
-0.355836
-0.363234
-0.34841
-0.3252
-0.340024
-0.34841
-0.334573
-0.311363
-0.3252
-0.334573
-0.321724
-0.298514
-0.311363
-0.321724
-0.309863
-0.286653
-0.298514
-0.309863
-0.298989
-0.275779
-0.286653
-0.298989
-0.289103
-0.265893
-0.275779
-0.289103
-0.280205
-0.256995
-0.265893
-0.280205
-0.272294
-0.249084
-0.256995
-0.272294
-0.265371
-0.242161
-0.249084
-0.265371
-0.259435
-0.236225
-0.242161
-0.259435
-0.254487
-0.231278
-0.236225
-0.254487
-0.250527
-0.227317
-0.231278
-0.250527
-0.247555
-0.224345
-0.227317
-0.247555
-0.24557
-0.22236
-0.224345
-0.24557
-0.244573
-0.221363
-0.22236
-0.244573
-0.244563
-0.221353
-0.221363
-0.244563
-0.245541
-0.222331
-0.221353
-0.245541
-0.247507
-0.224297
-0.222331
-0.247507
-0.250461
-0.227251
-0.224297
-0.250461
-0.254402
-0.231192
-0.227251
-0.254402
-0.25933
-0.23612
-0.231192
-0.25933
-0.265247
-0.242037
-0.23612
-0.265247
-0.272151
-0.248941
-0.242037
-0.272151
-0.280042
-0.256833
-0.248941
-0.280042
-0.288922
-0.265712
-0.256833
-0.288922
-0.298789
-0.275579
-0.265712
-0.298789
-0.309644
-0.286434
-0.275579
-0.309644
-0.321486
-0.298276
-0.286434
-0.321486
-0.334316
-0.311106
-0.298276
-0.334316
-0.348133
-0.324924
-0.311106
-0.348133
-0.362939
-0.339729
-0.324924
-0.362939
-0.378732
-0.355522
-0.339729
-0.378732
-0.395512
-0.372302
-0.355522
-0.395512
-0.413281
-0.390071
-0.372302
-0.413281
-0.432036
-0.408827
-0.390071
-0.432036
-0.45178
-0.42857
-0.408827
-0.45178