# vtk DataFile Version 1.0
unstructured Grid
ASCII
DATASET UNSTRUCTURED_GRID
POINTS 23424 float 
0 0	 0.0
0.0222222 0	 0.0
0.0222222 0.0222222	 0.0
0 0.0222222	 0.0
0.0222222 0	 0.0
0.0444444 0	 0.0
0.0444444 0.0222222	 0.0
0.0222222 0.0222222	 0.0
0.0444444 0	 0.0
0.0666667 0	 0.0
0.0666667 0.0222222	 0.0
0.0444444 0.0222222	 0.0
0.0666667 0	 0.0
0.0888889 0	 0.0
0.0888889 0.0222222	 0.0
0.0666667 0.0222222	 0.0
0.0888889 0	 0.0
0.111111 0	 0.0
0.111111 0.0222222	 0.0
0.0888889 0.0222222	 0.0
0.111111 0	 0.0
0.133333 0	 0.0
0.133333 0.0222222	 0.0
0.111111 0.0222222	 0.0
0.133333 0	 0.0
0.155556 0	 0.0
0.155556 0.0222222	 0.0
0.133333 0.0222222	 0.0
0.155556 0	 0.0
0.177778 0	 0.0
0.177778 0.0222222	 0.0
0.155556 0.0222222	 0.0
0.177778 0	 0.0
0.2 0	 0.0
0.2 0.0222222	 0.0
0.177778 0.0222222	 0.0
0.2 0	 0.0
0.222222 0	 0.0
0.222222 0.0222222	 0.0
0.2 0.0222222	 0.0
0.222222 0	 0.0
0.244444 0	 0.0
0.244444 0.0222222	 0.0
0.222222 0.0222222	 0.0
0.244444 0	 0.0
0.266667 0	 0.0
0.266667 0.0222222	 0.0
0.244444 0.0222222	 0.0
0.266667 0	 0.0
0.288889 0	 0.0
0.288889 0.0222222	 0.0
0.266667 0.0222222	 0.0
0.288889 0	 0.0
0.311111 0	 0.0
0.311111 0.0222222	 0.0
0.288889 0.0222222	 0.0
0.311111 0	 0.0
0.333333 0	 0.0
0.333333 0.0222222	 0.0
0.311111 0.0222222	 0.0
0.333333 0	 0.0
0.355556 0	 0.0
0.355556 0.0222222	 0.0
0.333333 0.0222222	 0.0
0.355556 0	 0.0
0.377778 0	 0.0
0.377778 0.0222222	 0.0
0.355556 0.0222222	 0.0
0.377778 0	 0.0
0.4 0	 0.0
0.4 0.0222222	 0.0
0.377778 0.0222222	 0.0
0.4 0	 0.0
0.422222 0	 0.0
0.422222 0.0222222	 0.0
0.4 0.0222222	 0.0
0.422222 0	 0.0
0.444444 0	 0.0
0.444444 0.0222222	 0.0
0.422222 0.0222222	 0.0
0.444444 0	 0.0
0.466667 0	 0.0
0.466667 0.0222222	 0.0
0.444444 0.0222222	 0.0
0.466667 0	 0.0
0.488889 0	 0.0
0.488889 0.0222222	 0.0
0.466667 0.0222222	 0.0
0.488889 0	 0.0
0.511111 0	 0.0
0.511111 0.0222222	 0.0
0.488889 0.0222222	 0.0
0.511111 0	 0.0
0.533333 0	 0.0
0.533333 0.0222222	 0.0
0.511111 0.0222222	 0.0
0.533333 0	 0.0
0.555556 0	 0.0
0.555556 0.0222222	 0.0
0.533333 0.0222222	 0.0
0.555556 0	 0.0
0.577778 0	 0.0
0.577778 0.0222222	 0.0
0.555556 0.0222222	 0.0
0.577778 0	 0.0
0.6 0	 0.0
0.6 0.0222222	 0.0
0.577778 0.0222222	 0.0
0.6 0	 0.0
0.622222 0	 0.0
0.622222 0.0222222	 0.0
0.6 0.0222222	 0.0
0.622222 0	 0.0
0.644444 0	 0.0
0.644444 0.0222222	 0.0
0.622222 0.0222222	 0.0
0.644444 0	 0.0
0.666667 0	 0.0
0.666667 0.0222222	 0.0
0.644444 0.0222222	 0.0
0.666667 0	 0.0
0.688889 0	 0.0
0.688889 0.0222222	 0.0
0.666667 0.0222222	 0.0
0.688889 0	 0.0
0.711111 0	 0.0
0.711111 0.0222222	 0.0
0.688889 0.0222222	 0.0
0.711111 0	 0.0
0.733333 0	 0.0
0.733333 0.0222222	 0.0
0.711111 0.0222222	 0.0
0.733333 0	 0.0
0.755556 0	 0.0
0.755556 0.0222222	 0.0
0.733333 0.0222222	 0.0
0.755556 0	 0.0
0.777778 0	 0.0
0.777778 0.0222222	 0.0
0.755556 0.0222222	 0.0
0.777778 0	 0.0
0.8 0	 0.0
0.8 0.0222222	 0.0
0.777778 0.0222222	 0.0
0.8 0	 0.0
0.822222 0	 0.0
0.822222 0.0222222	 0.0
0.8 0.0222222	 0.0
0.822222 0	 0.0
0.844444 0	 0.0
0.844444 0.0222222	 0.0
0.822222 0.0222222	 0.0
0.844444 0	 0.0
0.866667 0	 0.0
0.866667 0.0222222	 0.0
0.844444 0.0222222	 0.0
0.866667 0	 0.0
0.888889 0	 0.0
0.888889 0.0222222	 0.0
0.866667 0.0222222	 0.0
0.888889 0	 0.0
0.911111 0	 0.0
0.911111 0.0222222	 0.0
0.888889 0.0222222	 0.0
0.911111 0	 0.0
0.933333 0	 0.0
0.933333 0.0222222	 0.0
0.911111 0.0222222	 0.0
0.933333 0	 0.0
0.955556 0	 0.0
0.955556 0.0222222	 0.0
0.933333 0.0222222	 0.0
0.955556 0	 0.0
0.977778 0	 0.0
0.977778 0.0222222	 0.0
0.955556 0.0222222	 0.0
0.977778 0	 0.0
1 0	 0.0
1 0.0222222	 0.0
0.977778 0.0222222	 0.0
1 0	 0.0
1.02222 0	 0.0
1.02222 0.0222222	 0.0
1 0.0222222	 0.0
1.02222 0	 0.0
1.04444 0	 0.0
1.04444 0.0222222	 0.0
1.02222 0.0222222	 0.0
1.04444 0	 0.0
1.06667 0	 0.0
1.06667 0.0222222	 0.0
1.04444 0.0222222	 0.0
1.06667 0	 0.0
1.08889 0	 0.0
1.08889 0.0222222	 0.0
1.06667 0.0222222	 0.0
1.08889 0	 0.0
1.11111 0	 0.0
1.11111 0.0222222	 0.0
1.08889 0.0222222	 0.0
1.11111 0	 0.0
1.13333 0	 0.0
1.13333 0.0222222	 0.0
1.11111 0.0222222	 0.0
1.13333 0	 0.0
1.15556 0	 0.0
1.15556 0.0222222	 0.0
1.13333 0.0222222	 0.0
1.15556 0	 0.0
1.17778 0	 0.0
1.17778 0.0222222	 0.0
1.15556 0.0222222	 0.0
1.17778 0	 0.0
1.2 0	 0.0
1.2 0.0222222	 0.0
1.17778 0.0222222	 0.0
1.2 0	 0.0
1.22222 0	 0.0
1.22222 0.0222222	 0.0
1.2 0.0222222	 0.0
1.22222 0	 0.0
1.24444 0	 0.0
1.24444 0.0222222	 0.0
1.22222 0.0222222	 0.0
1.24444 0	 0.0
1.26667 0	 0.0
1.26667 0.0222222	 0.0
1.24444 0.0222222	 0.0
1.26667 0	 0.0
1.28889 0	 0.0
1.28889 0.0222222	 0.0
1.26667 0.0222222	 0.0
1.28889 0	 0.0
1.31111 0	 0.0
1.31111 0.0222222	 0.0
1.28889 0.0222222	 0.0
1.31111 0	 0.0
1.33333 0	 0.0
1.33333 0.0222222	 0.0
1.31111 0.0222222	 0.0
1.33333 0	 0.0
1.35556 0	 0.0
1.35556 0.0222222	 0.0
1.33333 0.0222222	 0.0
1.35556 0	 0.0
1.37778 0	 0.0
1.37778 0.0222222	 0.0
1.35556 0.0222222	 0.0
1.37778 0	 0.0
1.4 0	 0.0
1.4 0.0222222	 0.0
1.37778 0.0222222	 0.0
1.4 0	 0.0
1.42222 0	 0.0
1.42222 0.0222222	 0.0
1.4 0.0222222	 0.0
1.42222 0	 0.0
1.44444 0	 0.0
1.44444 0.0222222	 0.0
1.42222 0.0222222	 0.0
1.44444 0	 0.0
1.46667 0	 0.0
1.46667 0.0222222	 0.0
1.44444 0.0222222	 0.0
1.46667 0	 0.0
1.48889 0	 0.0
1.48889 0.0222222	 0.0
1.46667 0.0222222	 0.0
1.48889 0	 0.0
1.51111 0	 0.0
1.51111 0.0222222	 0.0
1.48889 0.0222222	 0.0
1.51111 0	 0.0
1.53333 0	 0.0
1.53333 0.0222222	 0.0
1.51111 0.0222222	 0.0
1.53333 0	 0.0
1.55556 0	 0.0
1.55556 0.0222222	 0.0
1.53333 0.0222222	 0.0
1.55556 0	 0.0
1.57778 0	 0.0
1.57778 0.0222222	 0.0
1.55556 0.0222222	 0.0
1.57778 0	 0.0
1.6 0	 0.0
1.6 0.0222222	 0.0
1.57778 0.0222222	 0.0
1.6 0	 0.0
1.62222 0	 0.0
1.62222 0.0222222	 0.0
1.6 0.0222222	 0.0
1.62222 0	 0.0
1.64444 0	 0.0
1.64444 0.0222222	 0.0
1.62222 0.0222222	 0.0
1.64444 0	 0.0
1.66667 0	 0.0
1.66667 0.0222222	 0.0
1.64444 0.0222222	 0.0
1.66667 0	 0.0
1.68889 0	 0.0
1.68889 0.0222222	 0.0
1.66667 0.0222222	 0.0
1.68889 0	 0.0
1.71111 0	 0.0
1.71111 0.0222222	 0.0
1.68889 0.0222222	 0.0
1.71111 0	 0.0
1.73333 0	 0.0
1.73333 0.0222222	 0.0
1.71111 0.0222222	 0.0
1.73333 0	 0.0
1.75556 0	 0.0
1.75556 0.0222222	 0.0
1.73333 0.0222222	 0.0
1.75556 0	 0.0
1.77778 0	 0.0
1.77778 0.0222222	 0.0
1.75556 0.0222222	 0.0
1.77778 0	 0.0
1.8 0	 0.0
1.8 0.0222222	 0.0
1.77778 0.0222222	 0.0
1.8 0	 0.0
1.82222 0	 0.0
1.82222 0.0222222	 0.0
1.8 0.0222222	 0.0
1.82222 0	 0.0
1.84444 0	 0.0
1.84444 0.0222222	 0.0
1.82222 0.0222222	 0.0
1.84444 0	 0.0
1.86667 0	 0.0
1.86667 0.0222222	 0.0
1.84444 0.0222222	 0.0
1.86667 0	 0.0
1.88889 0	 0.0
1.88889 0.0222222	 0.0
1.86667 0.0222222	 0.0
1.88889 0	 0.0
1.91111 0	 0.0
1.91111 0.0222222	 0.0
1.88889 0.0222222	 0.0
1.91111 0	 0.0
1.93333 0	 0.0
1.93333 0.0222222	 0.0
1.91111 0.0222222	 0.0
1.93333 0	 0.0
1.95556 0	 0.0
1.95556 0.0222222	 0.0
1.93333 0.0222222	 0.0
1.95556 0	 0.0
1.97778 0	 0.0
1.97778 0.0222222	 0.0
1.95556 0.0222222	 0.0
1.97778 0	 0.0
2 0	 0.0
2 0.0222222	 0.0
1.97778 0.0222222	 0.0
2 0	 0.0
2.02222 0	 0.0
2.02222 0.0222222	 0.0
2 0.0222222	 0.0
2.02222 0	 0.0
2.04444 0	 0.0
2.04444 0.0222222	 0.0
2.02222 0.0222222	 0.0
2.04444 0	 0.0
2.06667 0	 0.0
2.06667 0.0222222	 0.0
2.04444 0.0222222	 0.0
2.06667 0	 0.0
2.08889 0	 0.0
2.08889 0.0222222	 0.0
2.06667 0.0222222	 0.0
2.08889 0	 0.0
2.11111 0	 0.0
2.11111 0.0222222	 0.0
2.08889 0.0222222	 0.0
2.11111 0	 0.0
2.13333 0	 0.0
2.13333 0.0222222	 0.0
2.11111 0.0222222	 0.0
2.13333 0	 0.0
2.15556 0	 0.0
2.15556 0.0222222	 0.0
2.13333 0.0222222	 0.0
2.15556 0	 0.0
2.17778 0	 0.0
2.17778 0.0222222	 0.0
2.15556 0.0222222	 0.0
2.17778 0	 0.0
2.2 0	 0.0
2.2 0.0222222	 0.0
2.17778 0.0222222	 0.0
2.2 0	 0.0
2.22222 0	 0.0
2.22222 0.0222222	 0.0
2.2 0.0222222	 0.0
2.22222 0	 0.0
2.24444 0	 0.0
2.24444 0.0222222	 0.0
2.22222 0.0222222	 0.0
2.24444 0	 0.0
2.26667 0	 0.0
2.26667 0.0222222	 0.0
2.24444 0.0222222	 0.0
2.26667 0	 0.0
2.28889 0	 0.0
2.28889 0.0222222	 0.0
2.26667 0.0222222	 0.0
2.28889 0	 0.0
2.31111 0	 0.0
2.31111 0.0222222	 0.0
2.28889 0.0222222	 0.0
2.31111 0	 0.0
2.33333 0	 0.0
2.33333 0.0222222	 0.0
2.31111 0.0222222	 0.0
2.33333 0	 0.0
2.35556 0	 0.0
2.35556 0.0222222	 0.0
2.33333 0.0222222	 0.0
2.35556 0	 0.0
2.37778 0	 0.0
2.37778 0.0222222	 0.0
2.35556 0.0222222	 0.0
2.37778 0	 0.0
2.4 0	 0.0
2.4 0.0222222	 0.0
2.37778 0.0222222	 0.0
2.4 0	 0.0
2.42222 0	 0.0
2.42222 0.0222222	 0.0
2.4 0.0222222	 0.0
2.42222 0	 0.0
2.44444 0	 0.0
2.44444 0.0222222	 0.0
2.42222 0.0222222	 0.0
2.44444 0	 0.0
2.46667 0	 0.0
2.46667 0.0222222	 0.0
2.44444 0.0222222	 0.0
2.46667 0	 0.0
2.48889 0	 0.0
2.48889 0.0222222	 0.0
2.46667 0.0222222	 0.0
2.48889 0	 0.0
2.51111 0	 0.0
2.51111 0.0222222	 0.0
2.48889 0.0222222	 0.0
2.51111 0	 0.0
2.53333 0	 0.0
2.53333 0.0222222	 0.0
2.51111 0.0222222	 0.0
2.53333 0	 0.0
2.55556 0	 0.0
2.55556 0.0222222	 0.0
2.53333 0.0222222	 0.0
2.55556 0	 0.0
2.57778 0	 0.0
2.57778 0.0222222	 0.0
2.55556 0.0222222	 0.0
2.57778 0	 0.0
2.6 0	 0.0
2.6 0.0222222	 0.0
2.57778 0.0222222	 0.0
2.6 0	 0.0
2.62222 0	 0.0
2.62222 0.0222222	 0.0
2.6 0.0222222	 0.0
2.62222 0	 0.0
2.64444 0	 0.0
2.64444 0.0222222	 0.0
2.62222 0.0222222	 0.0
2.64444 0	 0.0
2.66667 0	 0.0
2.66667 0.0222222	 0.0
2.64444 0.0222222	 0.0
2.66667 0	 0.0
2.68889 0	 0.0
2.68889 0.0222222	 0.0
2.66667 0.0222222	 0.0
2.68889 0	 0.0
2.71111 0	 0.0
2.71111 0.0222222	 0.0
2.68889 0.0222222	 0.0
2.71111 0	 0.0
2.73333 0	 0.0
2.73333 0.0222222	 0.0
2.71111 0.0222222	 0.0
2.73333 0	 0.0
2.75556 0	 0.0
2.75556 0.0222222	 0.0
2.73333 0.0222222	 0.0
2.75556 0	 0.0
2.77778 0	 0.0
2.77778 0.0222222	 0.0
2.75556 0.0222222	 0.0
2.77778 0	 0.0
2.8 0	 0.0
2.8 0.0222222	 0.0
2.77778 0.0222222	 0.0
2.8 0	 0.0
2.82222 0	 0.0
2.82222 0.0222222	 0.0
2.8 0.0222222	 0.0
2.82222 0	 0.0
2.84444 0	 0.0
2.84444 0.0222222	 0.0
2.82222 0.0222222	 0.0
2.84444 0	 0.0
2.86667 0	 0.0
2.86667 0.0222222	 0.0
2.84444 0.0222222	 0.0
2.86667 0	 0.0
2.88889 0	 0.0
2.88889 0.0222222	 0.0
2.86667 0.0222222	 0.0
2.88889 0	 0.0
2.91111 0	 0.0
2.91111 0.0222222	 0.0
2.88889 0.0222222	 0.0
2.91111 0	 0.0
[...]
POINT_DATA 23424
SCALARS levelset_first float
LOOKUP_TABLE default
-4.15142
-4.06492
-4.03874
-4.12525
-4.06492
-3.9794
-3.95323
-4.03874
-3.9794
-3.89488
-3.8687
-3.95323
-3.89488
-3.81134
-3.78517
-3.8687
-3.81134
-3.72879
-3.70261
-3.78517
-3.72879
-3.64722
-3.62105
-3.70261
-3.64722
-3.56665
-3.54047
-3.62105
-3.56665
-3.48706
-3.46089
-3.54047
-3.48706
-3.40846
-3.38229
-3.46089
-3.40846
-3.33085
-3.30467
-3.38229
-3.33085
-3.25422
-3.22805
-3.30467
-3.25422
-3.17858
-3.15241
-3.22805
-3.17858
-3.10393
-3.07776
-3.15241
-3.10393
-3.03027
-3.0041
-3.07776
-3.03027
-2.9576
-2.93142
-3.0041
-2.9576
-2.88591
-2.85974
-2.93142
-2.88591
-2.81521
-2.78904
-2.85974
-2.81521
-2.7455
-2.71933
-2.78904
-2.7455
-2.67677
-2.6506
-2.71933
-2.67677
-2.60904
-2.58286
-2.6506
-2.60904
-2.54229
-2.51612
-2.58286
-2.54229
-2.47653
-2.45036
-2.51612
-2.47653
-2.41175
-2.38558
-2.45036
-2.41175
-2.34797
-2.3218
-2.38558
-2.34797
-2.28517
-2.259
-2.3218
-2.28517
-2.22336
-2.19719
-2.259
-2.22336
-2.16254
-2.13636
-2.19719
-2.16254
-2.1027
-2.07653
-2.13636
-2.1027
-2.04386
-2.01768
-2.07653
-2.04386
-1.986
-1.95982
-2.01768
-1.986
-1.92912
-1.90295
-1.95982
-1.92912
-1.87324
-1.84707
-1.90295
-1.87324
-1.81834
-1.79217
-1.84707
-1.81834
-1.76443
-1.73826
-1.79217
-1.76443
-1.71151
-1.68534
-1.73826
-1.71151
-1.65958
-1.6334
-1.68534
-1.65958
-1.60863
-1.58246
-1.6334
-1.60863
-1.55867
-1.5325
-1.58246
-1.55867
-1.5097
-1.48353
-1.5325
-1.5097
-1.46172
-1.43555
-1.48353
-1.46172
-1.41472
-1.38855
-1.43555
-1.41472
-1.36871
-1.34254
-1.38855
-1.36871
-1.32369
-1.29752
-1.34254
-1.32369
-1.27966
-1.25349
-1.29752
-1.27966
-1.23662
-1.21044
-1.25349
-1.23662
-1.19456
-1.16839
-1.21044
-1.19456
-1.15349
-1.12732
-1.16839
-1.15349
-1.11341
-1.08723
-1.12732
-1.11341
-1.07431
-1.04814
-1.08723
-1.07431
-1.03621
-1.01003
-1.04814
-1.03621
-0.999088
-0.972915
-1.01003
-0.999088
-0.962956
-0.936783
-0.972915
-0.962956
-0.927813
-0.90164
-0.936783
-0.927813
-0.893656
-0.867484
-0.90164
-0.893656
-0.860488
-0.834315
-0.867484
-0.860488
-0.828307
-0.802134
-0.834315
-0.828307
-0.797114
-0.770941
-0.802134
-0.797114
-0.766909
-0.740736
-0.770941
-0.766909
-0.737691
-0.711518
-0.740736
-0.737691
-0.709461
-0.683288
-0.711518
-0.709461
-0.682218
-0.656045
-0.683288
-0.682218
-0.655963
-0.62979
-0.656045
-0.655963
-0.630696
-0.604523
-0.62979
-0.630696
-0.606416
-0.580244
-0.604523
-0.606416
-0.583125
-0.556952
-0.580244
-0.583125
-0.56082
-0.534647
-0.556952
-0.56082
-0.539504
-0.513331
-0.534647
-0.539504
-0.519175
-0.493002
-0.513331
-0.519175
-0.499833
-0.473661
-0.493002
-0.499833
-0.48148
-0.455307
-0.473661
-0.48148
-0.464114
-0.437941
-0.455307
-0.464114
-0.447736
-0.421563
-0.437941
-0.447736
-0.432345
-0.406172
-0.421563
-0.432345
-0.417942
-0.391769
-0.406172
-0.417942
-0.404527
-0.378354
-0.391769
-0.404527
-0.392099
-0.365926
-0.378354
-0.392099
-0.380659
-0.354486
-0.365926
-0.380659
-0.370206
-0.344034
-0.354486
-0.370206
-0.360742
-0.334569
-0.344034
-0.360742
-0.352265
-0.326092
-0.334569
-0.352265
-0.344775
-0.318602
-0.326092
-0.344775
-0.338273
-0.3121
-0.318602
-0.338273
-0.332759
-0.306586
-0.3121
-0.332759
-0.328233
-0.30206
-0.306586
-0.328233
-0.324694
-0.298521
-0.30206
-0.324694
-0.322143
-0.29597
-0.298521
-0.322143
-0.320579
-0.294406
-0.29597
-0.320579
-0.320003
-0.293831
-0.294406
-0.320003
-0.320415
-0.294242
-0.293831
-0.320415
-0.321815
-0.295642
-0.294242
-0.321815
-0.324202
-0.298029
-0.295642
-0.324202
-0.327577
-0.301404
-0.298029
-0.327577
-0.331939
-0.305766
-0.301404
-0.331939
-0.337289
-0.311116
-0.305766
-0.337289
-0.343627
-0.317454
-0.311116
-0.343627
-0.350952
-0.324779
-0.317454
-0.350952
-0.359265
-0.333092
-0.324779
-0.359265
-0.368566
-0.342393
-0.333092
-0.368566
-0.378854
-0.352681
-0.342393
-0.378854
-0.39013
-0.363957
-0.352681
-0.39013
-0.402394
-0.376221
-0.363957
-0.402394
-0.415645
-0.389472
-0.376221
-0.415645
-0.429884
-0.403711
-0.389472
-0.429884
-0.445111
-0.418938
-0.403711
-0.445111
-0.461325
-0.435152
-0.418938
-0.461325
-0.478527
-0.452354
-0.435152
-0.478527
-0.496717
-0.470544
-0.452354
-0.496717
-0.515894
-0.489721
-0.470544
-0.515894
-0.536059
-0.509886
-0.489721
-0.536059
-0.557211
-0.531038
-0.509886
-0.557211
-0.579351
-0.553179
-0.531038
-0.579351
-0.602479
-0.576306
-0.553179
-0.602479
-0.626595
-0.600422
-0.576306
-0.626595
-0.651698
-0.625525
-0.600422
-0.651698
-0.677789
-0.651616
-0.625525
-0.677789
-0.704867
-0.678694
-0.651616
-0.704867
-0.732933
-0.706761
-0.678694
-0.732933
-0.761987
-0.735814
-0.706761
-0.761987
-0.792029
-0.765856
-0.735814
-0.792029
-0.823058
-0.796885
-0.765856
-0.823058
-0.855074
-0.828902
-0.796885
-0.855074
-0.888079
-0.861906
-0.828902
-0.888079
-0.922071
-0.895898
-0.861906
-0.922071
-0.957051
-0.930878
-0.895898
-0.957051
-0.993018
-0.966845
-0.930878
-0.993018
-1.02997
-1.0038
-0.966845
-1.02997
-1.06792
-1.04174
-1.0038
-1.06792
-1.10685
-1.08067
-1.04174
-1.10685
-1.14676
-1.12059
-1.08067
-1.14676
-1.18767
-1.1615
-1.12059
-1.18767
-1.22956
-1.20339
-1.1615
-1.22956
-1.27244
-1.24627
-1.20339
-1.27244
-1.31631
-1.29014
-1.24627
-1.31631
-1.36117
-1.335
-1.29014
-1.36117
-1.40701
-1.38084
-1.335
-4.12525
-4.03874
-4.01356
-4.10006
-4.03874
-3.95323
-3.92805
-4.01356
-3.95323
-3.8687
-3.84352
-3.92805
-3.8687
-3.78517
-3.75998
-3.84352
-3.78517
-3.70261
-3.67743
-3.75998
-3.70261
-3.62105
-3.59587
-3.67743
-3.62105
-3.54047
-3.51529
-3.59587
-3.54047
-3.46089
-3.4357
-3.51529
-3.46089
-3.38229
-3.3571
-3.4357
-3.38229
-3.30467
-3.27949
-3.3571
-3.30467
-3.22805
-3.20286
-3.27949
-3.22805
-3.15241
-3.12722
-3.20286
-3.15241
-3.07776
-3.05257
-3.12722
-3.07776
-3.0041
-2.97891
-3.05257
-3.0041
-2.93142
-2.90624
-2.97891
-2.93142
-2.85974
-2.83455
-2.90624
-2.85974
-2.78904
-2.76385
-2.83455
-2.78904
-2.71933
-2.69414
-2.76385
-2.71933
-2.6506
-2.62542
-2.69414
-2.6506
-2.58286
-2.55768
-2.62542
-2.58286
-2.51612
-2.49093
-2.55768
-2.51612
-2.45036
-2.42517
-2.49093
-2.45036
-2.38558
-2.3604
-2.42517
-2.38558
-2.3218
-2.29661
-2.3604
-2.3218
-2.259
-2.23381
-2.29661
-2.259
-2.19719
-2.172
-2.23381
-2.19719
-2.13636
-2.11118
-2.172
-2.13636
-2.07653
-2.05134
-2.11118
-2.07653
-2.01768
-1.9925
-2.05134
-2.01768
-1.95982
-1.93464
-1.9925
-1.95982
-1.90295
-1.87777
-1.93464
-1.90295
-1.84707
-1.82188
-1.87777
-1.84707
-1.79217
-1.76698
-1.82188
-1.79217
-1.73826
-1.71307
-1.76698
-1.73826
-1.68534
-1.66015
-1.71307
-1.68534
-1.6334
-1.60822
-1.66015
-1.6334
-1.58246
-1.55727
-1.60822
-1.58246
-1.5325
-1.50731
-1.55727
-1.5325
-1.48353
-1.45834
-1.50731
-1.48353
-1.43555
-1.41036
-1.45834
-1.43555
-1.38855
-1.36336
-1.41036
-1.38855
-1.34254
-1.31736
-1.36336
-1.34254
-1.29752
-1.27234
-1.31736
-1.29752
-1.25349
-1.2283
-1.27234
-1.25349
-1.21044
-1.18526
-1.2283
-1.21044
-1.16839
-1.1432
-1.18526
-1.16839
-1.12732
-1.10213
-1.1432
-1.12732
-1.08723
-1.06205
-1.10213
-1.08723
-1.04814
-1.02296
-1.06205
-1.04814
-1.01003
-0.984849
-1.02296
-1.01003
-0.972915
-0.94773
-0.984849
-0.972915
-0.936783
-0.911598
-0.94773
-0.936783
-0.90164
-0.876454
-0.911598
-0.90164
-0.867484
-0.842298
-0.876454
-0.867484
-0.834315
-0.80913
-0.842298
-0.834315
-0.802134
-0.776949
-0.80913
-0.802134
-0.770941
-0.745756
-0.776949
-0.770941
-0.740736
-0.715551
-0.745756
-0.740736
-0.711518
-0.686333
-0.715551
-0.711518
-0.683288
-0.658103
-0.686333
-0.683288
-0.656045
-0.63086
-0.658103
-0.656045
-0.62979
-0.604605
-0.63086
-0.62979
-0.604523
-0.579338
-0.604605
-0.604523
-0.580244
-0.555058
-0.579338
-0.580244
-0.556952
-0.531767
-0.555058
-0.556952
-0.534647
-0.509462
-0.531767
-0.534647
-0.513331
-0.488146
-0.509462
-0.513331
-0.493002
-0.467817
-0.488146
-0.493002
-0.473661
-0.448475
-0.467817
-0.473661
-0.455307
-0.430122
-0.448475
-0.455307
-0.437941
-0.412756
-0.430122
-0.437941
-0.421563
-0.396378
-0.412756
-0.421563
-0.406172
-0.380987
-0.396378
-0.406172
-0.391769
-0.366584
-0.380987
-0.391769
-0.378354
-0.353168
-0.366584
-0.378354
-0.365926
-0.340741
-0.353168
-0.365926
-0.354486
-0.329301
-0.340741
-0.354486
-0.344034
-0.318848
-0.329301
-0.344034
-0.334569
-0.309384
-0.318848
-0.334569
-0.326092
-0.300907
-0.309384
-0.326092
-0.318602
-0.293417
-0.300907
-0.318602
-0.3121
-0.286915
-0.293417
-0.3121
-0.306586
-0.281401
-0.286915
-0.306586
-0.30206
-0.276875
-0.281401
-0.30206
-0.298521
-0.273336
-0.276875
-0.298521
-0.29597
-0.270785
-0.273336
-0.29597
-0.294406
-0.269221
-0.270785
-0.294406
-0.293831
-0.268645
-0.269221
-0.293831
-0.294242
-0.269057
-0.268645
-0.294242
-0.295642
-0.270457
-0.269057
-0.295642
-0.298029
-0.272844
-0.270457
-0.298029
-0.301404
-0.276219
-0.272844
-0.301404
-0.305766
-0.280581
-0.276219
-0.305766
-0.311116
-0.285931
-0.280581
-0.311116
-0.317454
-0.292269
-0.285931
-0.317454
-0.324779
-0.299594
-0.292269
-0.324779
-0.333092
-0.307907
-0.299594
-0.333092
-0.342393
-0.317208
-0.307907
-0.342393
-0.352681
-0.327496
-0.317208
-0.352681
-0.363957
-0.338772
-0.327496
-0.363957
-0.376221
-0.351036
-0.338772
-0.376221
-0.389472
-0.364287
-0.351036
-0.389472
-0.403711
-0.378526
-0.364287
-0.403711
-0.418938
-0.393753
-0.378526
-0.418938
-0.435152
-0.409967
-0.393753
-0.435152
-0.452354
-0.427169
-0.409967
-0.452354
-0.470544
-0.445359
-0.427169
-0.470544
-0.489721
-0.464536
-0.445359
-0.489721
-0.509886
-0.484701
-0.464536
-0.509886
-0.531038
-0.505853
-0.484701
-0.531038
-0.553179
-0.527993
-0.505853
-0.553179
-0.576306
-0.551121
-0.527993
-0.576306
-0.600422
-0.575237
-0.551121
-0.600422
-0.625525
-0.60034
-0.575237
-0.625525
-0.651616
-0.626431
-0.60034
-0.651616
-0.678694
-0.653509
-0.626431
-0.678694
-0.706761
-0.681575
-0.653509
-0.706761
-0.735814
-0.710629
-0.681575
-0.735814
-0.765856
-0.740671
-0.710629
-0.765856
-0.796885
-0.7717
-0.740671
-0.796885
-0.828902
-0.803716
-0.7717
-0.828902
-0.861906
-0.836721
-0.803716
-0.861906
-0.895898
-0.870713
-0.836721
-0.895898
-0.930878
-0.905693
-0.870713
-0.930878
-0.966845
-0.94166
-0.905693
-0.966845
-1.0038
-0.978615
-0.94166
-1.0038
-1.04174
-1.01656
-0.978615
-1.04174
-1.08067
-1.05549
-1.01656
-1.08067
-1.12059
-1.09541
-1.05549
-1.12059
-1.1615
-1.13631
-1.09541
-1.1615
-1.20339
-1.1782
-1.13631
-1.20339
-1.24627
-1.22109
-1.1782
-1.24627
-1.29014
-1.26495
-1.22109
-1.29014
-1.335
-1.30981
-1.26495
-1.335
-1.38084
-1.35565
-1.30981
-4.10006
-4.01356
-3.98936
-4.07586
-4.01356
-3.92805
-3.90385
-3.98936
-3.92805
-3.84352
-3.81932
-3.90385
-3.84352
-3.75998
-3.73578
-3.81932
-3.75998
-3.67743
-3.65323
-3.73578
-3.67743
-3.59587
-3.57167
-3.65323
-3.59587
-3.51529
-3.49109
-3.57167
-3.51529
-3.4357
-3.4115
-3.49109
-3.4357
-3.3571
-3.3329
-3.4115
-3.3571
-3.27949
-3.25529
-3.3329
-3.27949
-3.20286
-3.17866
-3.25529
-3.20286
-3.12722
-3.10303
-3.17866
-3.12722
-3.05257
-3.02838
-3.10303
-3.05257
-2.97891
-2.95472
-3.02838
-2.97891
-2.90624
-2.88204
-2.95472
-2.90624
-2.83455
-2.81035
-2.88204
-2.83455
-2.76385
-2.73965
-2.81035
-2.76385
-2.69414
-2.66994
-2.73965
-2.69414
-2.62542
-2.60122
-2.66994
-2.62542
-2.55768
-2.53348
-2.60122
-2.55768
-2.49093
-2.46673
-2.53348
-2.49093
-2.42517
-2.40097
-2.46673
-2.42517
-2.3604
-2.3362
-2.40097
-2.3604
-2.29661
-2.27241
-2.3362
-2.29661
-2.23381
-2.20962
-2.27241
-2.23381
-2.172
-2.1478
-2.20962
-2.172
-2.11118
-2.08698
-2.1478
-2.11118
-2.05134
-2.02715
-2.08698
-2.05134
-1.9925
-1.9683
-2.02715
-1.9925
-1.93464
-1.91044
-1.9683
-1.93464
-1.87777
-1.85357
-1.91044
-1.87777
-1.82188
-1.79768
-1.85357
-1.82188
-1.76698
-1.74279
-1.79768
-1.76698
-1.71307
-1.68888
-1.74279
-1.71307
-1.66015
-1.63596
-1.68888
-1.66015
-1.60822
-1.58402
-1.63596
-1.60822
-1.55727
-1.53308
-1.58402
-1.55727
-1.50731
-1.48312
-1.53308
-1.50731
-1.45834
-1.43415
-1.48312
-1.45834
-1.41036
-1.38616
-1.43415
-1.41036
-1.36336
-1.33917
-1.38616
-1.36336
-1.31736
-1.29316
-1.33917
-1.31736
-1.27234
-1.24814
-1.29316
-1.27234
-1.2283
-1.20411
-1.24814
-1.2283
-1.18526
-1.16106
-1.20411
-1.18526
-1.1432
-1.119
-1.16106
-1.1432
-1.10213
-1.07793
-1.119
-1.10213
-1.06205
-1.03785
-1.07793
-1.06205
-1.02296
-0.998758
-1.03785
-1.02296
-0.984849
-0.960651
-0.998758
-0.984849
-0.94773
-0.923532
-0.960651
-0.94773
-0.911598
-0.887401
-0.923532
-0.911598
-0.876454
-0.852257
-0.887401
-0.876454
-0.842298
-0.818101
-0.852257
-0.842298
-0.80913
-0.784932
-0.818101
-0.80913
-0.776949
-0.752752
-0.784932
-0.776949
-0.745756
-0.721558
-0.752752
-0.745756
-0.715551
-0.691353
-0.721558
-0.715551
-0.686333
-0.662135
-0.691353
-0.686333
-0.658103
-0.633905
-0.662135
-0.658103
-0.63086
-0.606663
-0.633905
-0.63086
-0.604605
-0.580408
-0.606663
-0.604605
-0.579338
-0.55514
-0.580408
-0.579338
-0.555058
-0.530861
-0.55514
-0.555058
-0.531767
-0.507569
-0.530861
-0.531767
-0.509462
-0.485265
-0.507569
-0.509462
-0.488146
-0.463948
-0.485265
-0.488146
-0.467817
-0.443619
-0.463948
-0.467817
-0.448475
-0.424278
-0.443619
-0.448475
-0.430122
-0.405924
-0.424278
-0.430122
-0.412756
-0.388558
-0.405924
-0.412756
-0.396378
-0.37218
-0.388558
-0.396378
-0.380987
-0.356789
-0.37218
-0.380987
-0.366584
-0.342386
-0.356789
-0.366584
-0.353168
-0.328971
-0.342386
-0.353168
-0.340741
-0.316543
-0.328971
-0.340741
-0.329301
-0.305103
-0.316543
-0.329301
-0.318848
-0.294651
-0.305103
-0.318848
-0.309384
-0.285186
-0.294651
-0.309384
-0.300907
-0.276709
-0.285186
-0.300907
-0.293417
-0.26922
-0.276709
-0.293417
-0.286915
-0.262718
-0.26922
-0.286915
-0.281401
-0.257204
-0.262718
-0.281401
-0.276875
-0.252677
-0.257204
-0.276875
-0.273336
-0.249138
-0.252677
-0.273336
-0.270785
-0.246587
-0.249138
-0.270785
-0.269221
-0.245024
-0.246587
-0.269221
-0.268645
-0.244448
-0.245024
-0.268645
-0.269057
-0.24486
-0.244448
-0.269057
-0.270457
-0.246259
-0.24486
-0.270457
-0.272844
-0.248646
-0.246259
-0.272844
-0.276219
-0.252021
-0.248646
-0.276219
-0.280581
-0.256383
-0.252021
-0.280581
-0.285931
-0.261733
-0.256383
-0.285931
-0.292269
-0.268071
-0.261733
-0.292269
-0.299594
-0.275397
-0.268071
-0.299594
-0.307907
-0.28371
-0.275397
-0.307907
-0.317208
-0.29301
-0.28371
-0.317208
-0.327496
-0.303299
-0.29301
-0.327496
-0.338772
-0.314575
-0.303299
-0.338772
-0.351036
-0.326838
-0.314575
-0.351036
-0.364287
-0.34009
-0.326838
-0.364287
-0.378526
-0.354329
-0.34009
-0.378526
-0.393753
-0.369555
-0.354329
-0.393753
-0.409967
-0.385769
-0.369555
-0.409967
-0.427169
-0.402971
-0.385769
-0.427169
-0.445359
-0.421161
-0.402971
-0.445359
-0.464536
-0.440338
-0.421161
-0.464536
-0.484701
-0.460503
-0.440338
-0.484701
-0.505853
-0.481656
-0.460503
-0.505853
-0.527993
-0.503796
-0.481656
-0.527993
-0.551121
-0.526924
-0.503796
-0.551121
-0.575237
-0.551039
-0.526924
-0.575237
-0.60034
-0.576142
-0.551039
-0.60034
-0.626431
-0.602233
-0.576142
-0.626431
-0.653509
-0.629312
-0.602233
-0.653509
-0.681575
-0.657378
-0.629312
-0.681575
-0.710629
-0.686432
-0.657378
-0.710629
-0.740671
-0.716473
-0.686432
-0.740671
-0.7717
-0.747502
-0.716473
-0.7717
-0.803716
-0.779519
-0.747502
-0.803716
-0.836721
-0.812523
-0.779519
-0.836721
-0.870713
-0.846515
-0.812523
-0.870713
-0.905693
-0.881495
-0.846515
-0.905693
-0.94166
-0.917462
-0.881495
-0.94166
-0.978615
-0.954417
-0.917462
-0.978615
-1.01656
-0.99236
-0.954417
-1.01656
-1.05549
-1.03129
-0.99236
-1.05549
-1.09541
-1.07121
-1.03129
-1.09541
-1.13631
-1.11211
-1.07121
-1.13631
-1.1782
-1.15401
-1.11211
-1.1782
-1.22109
-1.19689
-1.15401
-1.22109
-1.26495
-1.24076
-1.19689
-1.26495
-1.30981
-1.28561
-1.24076
-1.30981
-1.35565
-1.33146
-1.28561
-4.07586
-3.98936
-3.96615
-4.05265
-3.98936
-3.90385
-3.88064
-3.96615
-3.90385
-3.81932
-3.79611
-3.88064
-3.81932
-3.73578
-3.71257
-3.79611
-3.73578
-3.65323
-3.63002
-3.71257
-3.65323
-3.57167
-3.54846
-3.63002
-3.57167
-3.49109
-3.46788
-3.54846
-3.49109
-3.4115
-3.38829
-3.46788
-3.4115
-3.3329
-3.30969
-3.38829
-3.3329
-3.25529
-3.23208
-3.30969
-3.25529
-3.17866
-3.15546
-3.23208
-3.17866
-3.10303
-3.07982
-3.15546
-3.10303
-3.02838
-3.00517
-3.07982
-3.02838
-2.95472
-2.93151
-3.00517
-2.95472
-2.88204
-2.85883
-2.93151
-2.88204
-2.81035
-2.78714
-2.85883
-2.81035
-2.73965
-2.71644
-2.78714
-2.73965
-2.66994
-2.64673
-2.71644
-2.66994
-2.60122
-2.57801
-2.64673
-2.60122
-2.53348
-2.51027
-2.57801
-2.53348
-2.46673
-2.44352
-2.51027
-2.46673
-2.40097
-2.37776
-2.44352
-2.40097
-2.3362
-2.31299
-2.37776
-2.3362
-2.27241
-2.2492
-2.31299
-2.27241
-2.20962
-2.18641
-2.2492
-2.20962
-2.1478
-2.1246
-2.18641
-2.1478
-2.08698
-2.06377
-2.1246
-2.08698
-2.02715
-2.00394
-2.06377
-2.02715
-1.9683
-1.94509
-2.00394
-1.9683
-1.91044
-1.88723
-1.94509
-1.91044
-1.85357
-1.83036
-1.88723
-1.85357
-1.79768
-1.77447
-1.83036
-1.79768
-1.74279
-1.71958
-1.77447
-1.74279
-1.68888
-1.66567
-1.71958
-1.68888
-1.63596
-1.61275
-1.66567
-1.63596
-1.58402
-1.56081
-1.61275
-1.58402
-1.53308
-1.50987
-1.56081
-1.53308
-1.48312
-1.45991
-1.50987
-1.48312
-1.43415
-1.41094
-1.45991
-1.43415
-1.38616
-1.36295
-1.41094
-1.38616
-1.33917
-1.31596
-1.36295
-1.33917
-1.29316
-1.26995
-1.31596
-1.29316
-1.24814
-1.22493
-1.26995
-1.24814
-1.20411
-1.1809
-1.22493
-1.20411
-1.16106
-1.13785
-1.1809
-1.16106
-1.119
-1.09579
-1.13785
-1.119
-1.07793
-1.05472
-1.09579
-1.07793
-1.03785
-1.01464
-1.05472
-1.03785
-0.998758
-0.975548
-1.01464
-0.998758
-0.960651
-0.937441
-0.975548
-0.960651
-0.923532
-0.900322
-0.937441
-0.923532
-0.887401
-0.864191
-0.900322
-0.887401
-0.852257
-0.829047
-0.864191
-0.852257
-0.818101
-0.794891
-0.829047
-0.818101
-0.784932
-0.761723
-0.794891
-0.784932
-0.752752
-0.729542
-0.761723
-0.752752
-0.721558
-0.698349
-0.729542
-0.721558
-0.691353
-0.668143
-0.698349
-0.691353
-0.662135
-0.638925
-0.668143
-0.662135
-0.633905
-0.610695
-0.638925
-0.633905
-0.606663
-0.583453
-0.610695
-0.606663
-0.580408
-0.557198
-0.583453
-0.580408
-0.55514
-0.531931
-0.557198
-0.55514
-0.530861
-0.507651
-0.531931
-0.530861
-0.507569
-0.484359
-0.507651
-0.507569
-0.485265
-0.462055
-0.484359
-0.485265
-0.463948
-0.440738
-0.462055
-0.463948
-0.443619
-0.420409
-0.440738
-0.443619
-0.424278
-0.401068
-0.420409
-0.424278
-0.405924
-0.382714
-0.401068
-0.405924
-0.388558
-0.365348
-0.382714
-0.388558
-0.37218
-0.34897
-0.365348
-0.37218
-0.356789
-0.333579
-0.34897
-0.356789
-0.342386
-0.319176
-0.333579
-0.342386
-0.328971
-0.305761
-0.319176
-0.328971
-0.316543
-0.293333
-0.305761
-0.316543
-0.305103
-0.281893
-0.293333
-0.305103
-0.294651
-0.271441
-0.281893
-0.294651
-0.285186
-0.261976
-0.271441
-0.285186
-0.276709
-0.253499
-0.261976
-0.276709
-0.26922
-0.24601
-0.253499
-0.26922
-0.262718
-0.239508
-0.24601
-0.262718
-0.257204
-0.233994
-0.239508
-0.257204
-0.252677
-0.229467
-0.233994
-0.252677
-0.249138
-0.225928
-0.229467
-0.249138
-0.246587
-0.223377
-0.225928
-0.246587
-0.245024
-0.221814
-0.223377
-0.245024
-0.244448
-0.221238
-0.221814
-0.244448
-0.24486
-0.22165
-0.221238
-0.24486
-0.246259
-0.223049
-0.22165
-0.246259
-0.248646
-0.225436
-0.223049
-0.248646
-0.252021
-0.228811
-0.225436
-0.252021
-0.256383
-0.233174
-0.228811
-0.256383
-0.261733
-0.238524
-0.233174
-0.261733
-0.268071
-0.244861
-0.238524
-0.268071
-0.275397
-0.252187
-0.244861
-0.275397
-0.28371
-0.2605
-0.252187
-0.28371
-0.29301
-0.2698
-0.2605
-0.29301
-0.303299
-0.280089
-0.2698
-0.303299
-0.314575
-0.291365
-0.280089
-0.314575
-0.326838
-0.303628
-0.291365
-0.326838
-0.34009
-0.31688
-0.303628
-0.34009
-0.354329
-0.331119
-0.31688
-0.354329
-0.369555
-0.346345
-0.331119
-0.369555
-0.385769
-0.36256
-0.346345
-0.385769
-0.402971
-0.379762
-0.36256
-0.402971
-0.421161
-0.397951
-0.379762
-0.421161
-0.440338
-0.417128
-0.397951
-0.440338
-0.460503
-0.437293
-0.417128
-0.460503
-0.481656
-0.458446
-0.437293
-0.481656
-0.503796
-0.480586
-0.458446
-0.503796
-0.526924
-0.503714
-0.480586
-0.526924
-0.551039
-0.527829
-0.503714
-0.551039
-0.576142
-0.552933
-0.527829
-0.576142
-0.602233
-0.579023
-0.552933
-0.602233
-0.629312
-0.606102
-0.579023
-0.629312
-0.657378
-0.634168
-0.606102
-0.657378
-0.686432
-0.663222
-0.634168
-0.686432
-0.716473
-0.693263
-0.663222
-0.716473
-0.747502
-0.724292
-0.693263
-0.747502
-0.779519
-0.756309
-0.724292
-0.779519
-0.812523