# vtk DataFile Version 1.0
unstructured Grid
ASCII
DATASET UNSTRUCTURED_GRID
POINTS 23424 float 
0 0	 0.0
0.0222222 0	 0.0
0.0222222 0.0222222	 0.0
0 0.0222222	 0.0
0.0222222 0	 0.0
0.0444444 0	 0.0
0.0444444 0.0222222	 0.0
0.0222222 0.0222222	 0.0
0.0444444 0	 0.0
0.0666667 0	 0.0
0.0666667 0.0222222	 0.0
0.0444444 0.0222222	 0.0
0.0666667 0	 0.0
0.0888889 0	 0.0
0.0888889 0.0222222	 0.0
0.0666667 0.0222222	 0.0
0.0888889 0	 0.0
0.111111 0	 0.0
0.111111 0.0222222	 0.0
0.0888889 0.0222222	 0.0
0.111111 0	 0.0
0.133333 0	 0.0
0.133333 0.0222222	 0.0
0.111111 0.0222222	 0.0
0.133333 0	 0.0
0.155556 0	 0.0
0.155556 0.0222222	 0.0
0.133333 0.0222222	 0.0
0.155556 0	 0.0
0.177778 0	 0.0
0.177778 0.0222222	 0.0
0.155556 0.0222222	 0.0
0.177778 0	 0.0
0.2 0	 0.0
0.2 0.0222222	 0.0
0.177778 0.0222222	 0.0
0.2 0	 0.0
0.222222 0	 0.0
0.222222 0.0222222	 0.0
0.2 0.0222222	 0.0
0.222222 0	 0.0
0.244444 0	 0.0
0.244444 0.0222222	 0.0
0.222222 0.0222222	 0.0
0.244444 0	 0.0
0.266667 0	 0.0
0.266667 0.0222222	 0.0
0.244444 0.0222222	 0.0
0.266667 0	 0.0
0.288889 0	 0.0
0.288889 0.0222222	 0.0
0.266667 0.0222222	 0.0
0.288889 0	 0.0
0.311111 0	 0.0
0.311111 0.0222222	 0.0
0.288889 0.0222222	 0.0
0.311111 0	 0.0
0.333333 0	 0.0
0.333333 0.0222222	 0.0
0.311111 0.0222222	 0.0
0.333333 0	 0.0
0.355556 0	 0.0
0.355556 0.0222222	 0.0
0.333333 0.0222222	 0.0
0.355556 0	 0.0
0.377778 0	 0.0
0.377778 0.0222222	 0.0
0.355556 0.0222222	 0.0
0.377778 0	 0.0
0.4 0	 0.0
0.4 0.0222222	 0.0
0.377778 0.0222222	 0.0
0.4 0	 0.0
0.422222 0	 0.0
0.422222 0.0222222	 0.0
0.4 0.0222222	 0.0
0.422222 0	 0.0
0.444444 0	 0.0
0.444444 0.0222222	 0.0
0.422222 0.0222222	 0.0
0.444444 0	 0.0
0.466667 0	 0.0
0.466667 0.0222222	 0.0
0.444444 0.0222222	 0.0
0.466667 0	 0.0
0.488889 0	 0.0
0.488889 0.0222222	 0.0
0.466667 0.0222222	 0.0
0.488889 0	 0.0
0.511111 0	 0.0
0.511111 0.0222222	 0.0
0.488889 0.0222222	 0.0
0.511111 0	 0.0
0.533333 0	 0.0
0.533333 0.0222222	 0.0
0.511111 0.0222222	 0.0
0.533333 0	 0.0
0.555556 0	 0.0
0.555556 0.0222222	 0.0
0.533333 0.0222222	 0.0
0.555556 0	 0.0
0.577778 0	 0.0
0.577778 0.0222222	 0.0
0.555556 0.0222222	 0.0
0.577778 0	 0.0
0.6 0	 0.0
0.6 0.0222222	 0.0
0.577778 0.0222222	 0.0
0.6 0	 0.0
0.622222 0	 0.0
0.622222 0.0222222	 0.0
0.6 0.0222222	 0.0
0.622222 0	 0.0
0.644444 0	 0.0
0.644444 0.0222222	 0.0
0.622222 0.0222222	 0.0
0.644444 0	 0.0
0.666667 0	 0.0
0.666667 0.0222222	 0.0
0.644444 0.0222222	 0.0
0.666667 0	 0.0
0.688889 0	 0.0
0.688889 0.0222222	 0.0
0.666667 0.0222222	 0.0
0.688889 0	 0.0
0.711111 0	 0.0
0.711111 0.0222222	 0.0
0.688889 0.0222222	 0.0
0.711111 0	 0.0
0.733333 0	 0.0
0.733333 0.0222222	 0.0
0.711111 0.0222222	 0.0
0.733333 0	 0.0
0.755556 0	 0.0
0.755556 0.0222222	 0.0
0.733333 0.0222222	 0.0
0.755556 0	 0.0
0.777778 0	 0.0
0.777778 0.0222222	 0.0
0.755556 0.0222222	 0.0
0.777778 0	 0.0
0.8 0	 0.0
0.8 0.0222222	 0.0
0.777778 0.0222222	 0.0
0.8 0	 0.0
0.822222 0	 0.0
0.822222 0.0222222	 0.0
0.8 0.0222222	 0.0
0.822222 0	 0.0
0.844444 0	 0.0
0.844444 0.0222222	 0.0
0.822222 0.0222222	 0.0
0.844444 0	 0.0
0.866667 0	 0.0
0.866667 0.0222222	 0.0
0.844444 0.0222222	 0.0
0.866667 0	 0.0
0.888889 0	 0.0
0.888889 0.0222222	 0.0
0.866667 0.0222222	 0.0
0.888889 0	 0.0
0.911111 0	 0.0
0.911111 0.0222222	 0.0
0.888889 0.0222222	 0.0
0.911111 0	 0.0
0.933333 0	 0.0
0.933333 0.0222222	 0.0
0.911111 0.0222222	 0.0
0.933333 0	 0.0
0.955556 0	 0.0
0.955556 0.0222222	 0.0
0.933333 0.0222222	 0.0
0.955556 0	 0.0
0.977778 0	 0.0
0.977778 0.0222222	 0.0
0.955556 0.0222222	 0.0
0.977778 0	 0.0
1 0	 0.0
1 0.0222222	 0.0
0.977778 0.0222222	 0.0
1 0	 0.0
1.02222 0	 0.0
1.02222 0.0222222	 0.0
1 0.0222222	 0.0
1.02222 0	 0.0
1.04444 0	 0.0
1.04444 0.0222222	 0.0
1.02222 0.0222222	 0.0
1.04444 0	 0.0
1.06667 0	 0.0
1.06667 0.0222222	 0.0
1.04444 0.0222222	 0.0
1.06667 0	 0.0
1.08889 0	 0.0
1.08889 0.0222222	 0.0
1.06667 0.0222222	 0.0
1.08889 0	 0.0
1.11111 0	 0.0
1.11111 0.0222222	 0.0
1.08889 0.0222222	 0.0
1.11111 0	 0.0
1.13333 0	 0.0
1.13333 0.0222222	 0.0
1.11111 0.0222222	 0.0
1.13333 0	 0.0
1.15556 0	 0.0
1.15556 0.0222222	 0.0
1.13333 0.0222222	 0.0
1.15556 0	 0.0
1.17778 0	 0.0
1.17778 0.0222222	 0.0
1.15556 0.0222222	 0.0
1.17778 0	 0.0
1.2 0	 0.0
1.2 0.0222222	 0.0
1.17778 0.0222222	 0.0
1.2 0	 0.0
1.22222 0	 0.0
1.22222 0.0222222	 0.0
1.2 0.0222222	 0.0
1.22222 0	 0.0
1.24444 0	 0.0
1.24444 0.0222222	 0.0
1.22222 0.0222222	 0.0
1.24444 0	 0.0
1.26667 0	 0.0
1.26667 0.0222222	 0.0
1.24444 0.0222222	 0.0
1.26667 0	 0.0
1.28889 0	 0.0
1.28889 0.0222222	 0.0
1.26667 0.0222222	 0.0
1.28889 0	 0.0
1.31111 0	 0.0
1.31111 0.0222222	 0.0
1.28889 0.0222222	 0.0
1.31111 0	 0.0
1.33333 0	 0.0
1.33333 0.0222222	 0.0
1.31111 0.0222222	 0.0
1.33333 0	 0.0
1.35556 0	 0.0
1.35556 0.0222222	 0.0
1.33333 0.0222222	 0.0
1.35556 0	 0.0
1.37778 0	 0.0
1.37778 0.0222222	 0.0
1.35556 0.0222222	 0.0
1.37778 0	 0.0
1.4 0	 0.0
1.4 0.0222222	 0.0
1.37778 0.0222222	 0.0
1.4 0	 0.0
1.42222 0	 0.0
1.42222 0.0222222	 0.0
1.4 0.0222222	 0.0
1.42222 0	 0.0
1.44444 0	 0.0
1.44444 0.0222222	 0.0
1.42222 0.0222222	 0.0
1.44444 0	 0.0
1.46667 0	 0.0
1.46667 0.0222222	 0.0
1.44444 0.0222222	 0.0
1.46667 0	 0.0
1.48889 0	 0.0
1.48889 0.0222222	 0.0
1.46667 0.0222222	 0.0
1.48889 0	 0.0
1.51111 0	 0.0
1.51111 0.0222222	 0.0
1.48889 0.0222222	 0.0
1.51111 0	 0.0
1.53333 0	 0.0
1.53333 0.0222222	 0.0
1.51111 0.0222222	 0.0
1.53333 0	 0.0
1.55556 0	 0.0
1.55556 0.0222222	 0.0
1.53333 0.0222222	 0.0
1.55556 0	 0.0
1.57778 0	 0.0
1.57778 0.0222222	 0.0
1.55556 0.0222222	 0.0
1.57778 0	 0.0
1.6 0	 0.0
1.6 0.0222222	 0.0
1.57778 0.0222222	 0.0
1.6 0	 0.0
1.62222 0	 0.0
1.62222 0.0222222	 0.0
1.6 0.0222222	 0.0
1.62222 0	 0.0
1.64444 0	 0.0
1.64444 0.0222222	 0.0
1.62222 0.0222222	 0.0
1.64444 0	 0.0
1.66667 0	 0.0
1.66667 0.0222222	 0.0
1.64444 0.0222222	 0.0
1.66667 0	 0.0
1.68889 0	 0.0
1.68889 0.0222222	 0.0
1.66667 0.0222222	 0.0
1.68889 0	 0.0
1.71111 0	 0.0
1.71111 0.0222222	 0.0
1.68889 0.0222222	 0.0
1.71111 0	 0.0
1.73333 0	 0.0
1.73333 0.0222222	 0.0
1.71111 0.0222222	 0.0
1.73333 0	 0.0
1.75556 0	 0.0
1.75556 0.0222222	 0.0
1.73333 0.0222222	 0.0
1.75556 0	 0.0
1.77778 0	 0.0
1.77778 0.0222222	 0.0
1.75556 0.0222222	 0.0
1.77778 0	 0.0
1.8 0	 0.0
1.8 0.0222222	 0.0
1.77778 0.0222222	 0.0
1.8 0	 0.0
1.82222 0	 0.0
1.82222 0.0222222	 0.0
1.8 0.0222222	 0.0
1.82222 0	 0.0
1.84444 0	 0.0
1.84444 0.0222222	 0.0
1.82222 0.0222222	 0.0
1.84444 0	 0.0
1.86667 0	 0.0
1.86667 0.0222222	 0.0
1.84444 0.0222222	 0.0
1.86667 0	 0.0
1.88889 0	 0.0
1.88889 0.0222222	 0.0
1.86667 0.0222222	 0.0
1.88889 0	 0.0
1.91111 0	 0.0
1.91111 0.0222222	 0.0
1.88889 0.0222222	 0.0
1.91111 0	 0.0
1.93333 0	 0.0
1.93333 0.0222222	 0.0
1.91111 0.0222222	 0.0
1.93333 0	 0.0
1.95556 0	 0.0
1.95556 0.0222222	 0.0
1.93333 0.0222222	 0.0
1.95556 0	 0.0
1.97778 0	 0.0
1.97778 0.0222222	 0.0
1.95556 0.0222222	 0.0
1.97778 0	 0.0
2 0	 0.0
2 0.0222222	 0.0
1.97778 0.0222222	 0.0
2 0	 0.0
2.02222 0	 0.0
2.02222 0.0222222	 0.0
2 0.0222222	 0.0
2.02222 0	 0.0
2.04444 0	 0.0
2.04444 0.0222222	 0.0
2.02222 0.0222222	 0.0
2.04444 0	 0.0
2.06667 0	 0.0
2.06667 0.0222222	 0.0
2.04444 0.0222222	 0.0
2.06667 0	 0.0
2.08889 0	 0.0
2.08889 0.0222222	 0.0
2.06667 0.0222222	 0.0
2.08889 0	 0.0
2.11111 0	 0.0
2.11111 0.0222222	 0.0
2.08889 0.0222222	 0.0
2.11111 0	 0.0
2.13333 0	 0.0
2.13333 0.0222222	 0.0
2.11111 0.0222222	 0.0
2.13333 0	 0.0
2.15556 0	 0.0
2.15556 0.0222222	 0.0
2.13333 0.0222222	 0.0
2.15556 0	 0.0
2.17778 0	 0.0
2.17778 0.0222222	 0.0
2.15556 0.0222222	 0.0
2.17778 0	 0.0
2.2 0	 0.0
2.2 0.0222222	 0.0
2.17778 0.0222222	 0.0
2.2 0	 0.0
2.22222 0	 0.0
2.22222 0.0222222	 0.0
2.2 0.0222222	 0.0
2.22222 0	 0.0
2.24444 0	 0.0
2.24444 0.0222222	 0.0
2.22222 0.0222222	 0.0
2.24444 0	 0.0
2.26667 0	 0.0
2.26667 0.0222222	 0.0
2.24444 0.0222222	 0.0
2.26667 0	 0.0
2.28889 0	 0.0
2.28889 0.0222222	 0.0
2.26667 0.0222222	 0.0
2.28889 0	 0.0
2.31111 0	 0.0
2.31111 0.0222222	 0.0
2.28889 0.0222222	 0.0
2.31111 0	 0.0
2.33333 0	 0.0
2.33333 0.0222222	 0.0
2.31111 0.0222222	 0.0
2.33333 0	 0.0
2.35556 0	 0.0
2.35556 0.0222222	 0.0
2.33333 0.0222222	 0.0
2.35556 0	 0.0
2.37778 0	 0.0
2.37778 0.0222222	 0.0
2.35556 0.0222222	 0.0
2.37778 0	 0.0
2.4 0	 0.0
2.4 0.0222222	 0.0
2.37778 0.0222222	 0.0
2.4 0	 0.0
2.42222 0	 0.0
2.42222 0.0222222	 0.0
2.4 0.0222222	 0.0
2.42222 0	 0.0
2.44444 0	 0.0
2.44444 0.0222222	 0.0
2.42222 0.0222222	 0.0
2.44444 0	 0.0
2.46667 0	 0.0
2.46667 0.0222222	 0.0
2.44444 0.0222222	 0.0
2.46667 0	 0.0
2.48889 0	 0.0
2.48889 0.0222222	 0.0
2.46667 0.0222222	 0.0
2.48889 0	 0.0
2.51111 0	 0.0
2.51111 0.0222222	 0.0
2.48889 0.0222222	 0.0
2.51111 0	 0.0
2.53333 0	 0.0
2.53333 0.0222222	 0.0
2.51111 0.0222222	 0.0
2.53333 0	 0.0
2.55556 0	 0.0
2.55556 0.0222222	 0.0
2.53333 0.0222222	 0.0
2.55556 0	 0.0
2.57778 0	 0.0
2.57778 0.0222222	 0.0
2.55556 0.0222222	 0.0
2.57778 0	 0.0
2.6 0	 0.0
2.6 0.0222222	 0.0
2.57778 0.0222222	 0.0
2.6 0	 0.0
2.62222 0	 0.0
2.62222 0.0222222	 0.0
2.6 0.0222222	 0.0
2.62222 0	 0.0
2.64444 0	 0.0
2.64444 0.0222222	 0.0
2.62222 0.0222222	 0.0
2.64444 0	 0.0
2.66667 0	 0.0
2.66667 0.0222222	 0.0
2.64444 0.0222222	 0.0
2.66667 0	 0.0
2.68889 0	 0.0
2.68889 0.0222222	 0.0
2.66667 0.0222222	 0.0
2.68889 0	 0.0
2.71111 0	 0.0
2.71111 0.0222222	 0.0
2.68889 0.0222222	 0.0
2.71111 0	 0.0
2.73333 0	 0.0
2.73333 0.0222222	 0.0
2.71111 0.0222222	 0.0
2.73333 0	 0.0
2.75556 0	 0.0
2.75556 0.0222222	 0.0
2.73333 0.0222222	 0.0
2.75556 0	 0.0
2.77778 0	 0.0
2.77778 0.0222222	 0.0
2.75556 0.0222222	 0.0
2.77778 0	 0.0
2.8 0	 0.0
2.8 0.0222222	 0.0
2.77778 0.0222222	 0.0
2.8 0	 0.0
2.82222 0	 0.0
2.82222 0.0222222	 0.0
2.8 0.0222222	 0.0
2.82222 0	 0.0
2.84444 0	 0.0
2.84444 0.0222222	 0.0
2.82222 0.0222222	 0.0
2.84444 0	 0.0
2.86667 0	 0.0
2.86667 0.0222222	 0.0
2.84444 0.0222222	 0.0
2.86667 0	 0.0
2.88889 0	 0.0
2.88889 0.0222222	 0.0
2.86667 0.0222222	 0.0
2.88889 0	 0.0
2.91111 0	 0.0
2.91111 0.0222222	 0.0
2.88889 0.0222222	 0.0
2.91111 0	 0.0
[...]
POINT_DATA 23424
SCALARS levelset_first float
LOOKUP_TABLE default
-5.31776
-5.2189
-5.19272
-5.29159
-5.2189
-5.12102
-5.09485
-5.19272
-5.12102
-5.02413
-4.99796
-5.09485
-5.02413
-4.92823
-4.90206
-4.99796
-4.92823
-4.83331
-4.80714
-4.90206
-4.83331
-4.73939
-4.71322
-4.80714
-4.73939
-4.64645
-4.62028
-4.71322
-4.64645
-4.5545
-4.52833
-4.62028
-4.5545
-4.46354
-4.43736
-4.52833
-4.46354
-4.37356
-4.34739
-4.43736
-4.37356
-4.28457
-4.2584
-4.34739
-4.28457
-4.19657
-4.1704
-4.2584
-4.19657
-4.10956
-4.08338
-4.1704
-4.10956
-4.02353
-3.99736
-4.08338
-4.02353
-3.93849
-3.91232
-3.99736
-3.93849
-3.85444
-3.82827
-3.91232
-3.85444
-3.77138
-3.74521
-3.82827
-3.77138
-3.68931
-3.66314
-3.74521
-3.68931
-3.60822
-3.58205
-3.66314
-3.60822
-3.52812
-3.50195
-3.58205
-3.52812
-3.44901
-3.42284
-3.50195
-3.44901
-3.37089
-3.34471
-3.42284
-3.37089
-3.29375
-3.26758
-3.34471
-3.29375
-3.2176
-3.19143
-3.26758
-3.2176
-3.14244
-3.11627
-3.19143
-3.14244
-3.06827
-3.04209
-3.11627
-3.06827
-2.99508
-2.96891
-3.04209
-2.99508
-2.92288
-2.89671
-2.96891
-2.92288
-2.85167
-2.8255
-2.89671
-2.85167
-2.78145
-2.75528
-2.8255
-2.78145
-2.71221
-2.68604
-2.75528
-2.71221
-2.64397
-2.61779
-2.68604
-2.64397
-2.57671
-2.55053
-2.61779
-2.57671
-2.51044
-2.48426
-2.55053
-2.51044
-2.44515
-2.41898
-2.48426
-2.44515
-2.38085
-2.35468
-2.41898
-2.38085
-2.31754
-2.29137
-2.35468
-2.31754
-2.25522
-2.22905
-2.29137
-2.25522
-2.19389
-2.16772
-2.22905
-2.19389
-2.13354
-2.10737
-2.16772
-2.13354
-2.07418
-2.04801
-2.10737
-2.07418
-2.01581
-1.98964
-2.04801
-2.01581
-1.95843
-1.93226
-1.98964
-1.95843
-1.90203
-1.87586
-1.93226
-1.90203
-1.84663
-1.82045
-1.87586
-1.84663
-1.79221
-1.76603
-1.82045
-1.79221
-1.73877
-1.7126
-1.76603
-1.73877
-1.68633
-1.66016
-1.7126
-1.68633
-1.63487
-1.6087
-1.66016
-1.63487
-1.5844
-1.55823
-1.6087
-1.5844
-1.53492
-1.50875
-1.55823
-1.53492
-1.48643
-1.46025
-1.50875
-1.48643
-1.43892
-1.41275
-1.46025
-1.43892
-1.3924
-1.36623
-1.41275
-1.3924
-1.34687
-1.3207
-1.36623
-1.34687
-1.30232
-1.27615
-1.3207
-1.30232
-1.25877
-1.2326
-1.27615
-1.25877
-1.2162
-1.19003
-1.2326
-1.2162
-1.17462
-1.14845
-1.19003
-1.17462
-1.13403
-1.10785
-1.14845
-1.13403
-1.09442
-1.06825
-1.10785
-1.09442
-1.0558
-1.02963
-1.06825
-1.0558
-1.01817
-0.992
-1.02963
-1.01817
-0.981531
-0.955358
-0.992
-0.981531
-0.945876
-0.919703
-0.955358
-0.945876
-0.911208
-0.885036
-0.919703
-0.911208
-0.877529
-0.851356
-0.885036
-0.877529
-0.844837
-0.818664
-0.851356
-0.844837
-0.813133
-0.78696
-0.818664
-0.813133
-0.782416
-0.756243
-0.78696
-0.782416
-0.752687
-0.726514
-0.756243
-0.752687
-0.723946
-0.697773
-0.726514
-0.723946
-0.696192
-0.67002
-0.697773
-0.696192
-0.669426
-0.643254
-0.67002
-0.669426
-0.643648
-0.617475
-0.643254
-0.643648
-0.618857
-0.592685
-0.617475
-0.618857
-0.595054
-0.568882
-0.592685
-0.595054
-0.572239
-0.546066
-0.568882
-0.572239
-0.550411
-0.524239
-0.546066
-0.550411
-0.529571
-0.503399
-0.524239
-0.529571
-0.509719
-0.483546
-0.503399
-0.509719
-0.490854
-0.464681
-0.483546
-0.490854
-0.472977
-0.446804
-0.464681
-0.472977
-0.456088
-0.429915
-0.446804
-0.456088
-0.440186
-0.414013
-0.429915
-0.440186
-0.425272
-0.399099
-0.414013
-0.425272
-0.411345
-0.385173
-0.399099
-0.411345
-0.398407
-0.372234
-0.385173
-0.398407
-0.386456
-0.360283
-0.372234
-0.386456
-0.375492
-0.349319
-0.360283
-0.375492
-0.365516
-0.339343
-0.349319
-0.365516
-0.356528
-0.330355
-0.339343
-0.356528
-0.348527
-0.322355
-0.330355
-0.348527
-0.341515
-0.315342
-0.322355
-0.341515
-0.335489
-0.309317
-0.315342
-0.335489
-0.330452
-0.304279
-0.309317
-0.330452
-0.326402
-0.300229
-0.304279
-0.326402
-0.32334
-0.297167
-0.300229
-0.32334
-0.321265
-0.295092
-0.297167
-0.321265
-0.320178
-0.294005
-0.295092
-0.320178
-0.320079
-0.293906
-0.294005
-0.320079
-0.320967
-0.294794
-0.293906
-0.320967
-0.322843
-0.29667
-0.294794
-0.322843
-0.325707
-0.299534
-0.29667
-0.325707
-0.329558
-0.303385
-0.299534
-0.329558
-0.334397
-0.308224
-0.303385
-0.334397
-0.340224
-0.314051
-0.308224
-0.340224
-0.347038
-0.320865
-0.314051
-0.347038
-0.35484
-0.328667
-0.320865
-0.35484
-0.36363
-0.337457
-0.328667
-0.36363
-0.373407
-0.347234
-0.337457
-0.373407
-0.384172
-0.357999
-0.347234
-0.384172
-0.395924
-0.369751
-0.357999
-0.395924
-0.408664
-0.382492
-0.369751
-0.408664
-0.422392
-0.39622
-0.382492
-0.422392
-0.437108
-0.410935
-0.39622
-0.437108
-0.452811
-0.426638
-0.410935
-0.452811
-0.469502
-0.443329
-0.426638
-0.469502
-0.48718
-0.461008
-0.443329
-0.48718
-0.505846
-0.479674
-0.461008
-0.505846
-0.5255
-0.499327
-0.479674
-0.5255
-0.546142
-0.519969
-0.499327
-0.546142
-0.567771
-0.541598
-0.519969
-0.567771
-0.590388
-0.564215
-0.541598
-0.590388
-0.613992
-0.587819
-0.564215
-0.613992
-0.638584
-0.612411
-0.587819
-0.638584
-0.664164
-0.637991
-0.612411
-0.664164
-0.690731
-0.664558
-0.637991
-0.690731
-0.718286
-0.692113
-0.664558
-0.718286
-0.746829
-0.720656
-0.692113
-0.746829
-0.776359
-0.750186
-0.720656
-0.776359
-0.806877
-0.780704
-0.750186
-0.806877
-0.838383
-0.81221
-0.780704
-0.838383
-0.870876
-0.844703
-0.81221
-0.870876
-0.904357
-0.878184
-0.844703
-5.29159
-5.19272
-5.16754
-5.2664
-5.19272
-5.09485
-5.06966
-5.16754
-5.09485
-4.99796
-4.97277
-5.06966
-4.99796
-4.90206
-4.87687
-4.97277
-4.90206
-4.80714
-4.78196
-4.87687
-4.80714
-4.71322
-4.68803
-4.78196
-4.71322
-4.62028
-4.59509
-4.68803
-4.62028
-4.52833
-4.50314
-4.59509
-4.52833
-4.43736
-4.41218
-4.50314
-4.43736
-4.34739
-4.3222
-4.41218
-4.34739
-4.2584
-4.23321
-4.3222
-4.2584
-4.1704
-4.14521
-4.23321
-4.1704
-4.08338
-4.0582
-4.14521
-4.08338
-3.99736
-3.97217
-4.0582
-3.99736
-3.91232
-3.88714
-3.97217
-3.91232
-3.82827
-3.80309
-3.88714
-3.82827
-3.74521
-3.72002
-3.80309
-3.74521
-3.66314
-3.63795
-3.72002
-3.66314
-3.58205
-3.55686
-3.63795
-3.58205
-3.50195
-3.47676
-3.55686
-3.50195
-3.42284
-3.39765
-3.47676
-3.42284
-3.34471
-3.31953
-3.39765
-3.34471
-3.26758
-3.24239
-3.31953
-3.26758
-3.19143
-3.16624
-3.24239
-3.19143
-3.11627
-3.09108
-3.16624
-3.11627
-3.04209
-3.01691
-3.09108
-3.04209
-2.96891
-2.94372
-3.01691
-2.96891
-2.89671
-2.87152
-2.94372
-2.89671
-2.8255
-2.80031
-2.87152
-2.8255
-2.75528
-2.73009
-2.80031
-2.75528
-2.68604
-2.66086
-2.73009
-2.68604
-2.61779
-2.59261
-2.66086
-2.61779
-2.55053
-2.52535
-2.59261
-2.55053
-2.48426
-2.45908
-2.52535
-2.48426
-2.41898
-2.39379
-2.45908
-2.41898
-2.35468
-2.3295
-2.39379
-2.35468
-2.29137
-2.26619
-2.3295
-2.29137
-2.22905
-2.20387
-2.26619
-2.22905
-2.16772
-2.14253
-2.20387
-2.16772
-2.10737
-2.08219
-2.14253
-2.10737
-2.04801
-2.02283
-2.08219
-2.04801
-1.98964
-1.96446
-2.02283
-1.98964
-1.93226
-1.90707
-1.96446
-1.93226
-1.87586
-1.85068
-1.90707
-1.87586
-1.82045
-1.79527
-1.85068
-1.82045
-1.76603
-1.74085
-1.79527
-1.76603
-1.7126
-1.68742
-1.74085
-1.7126
-1.66016
-1.63497
-1.68742
-1.66016
-1.6087
-1.58351
-1.63497
-1.6087
-1.55823
-1.53304
-1.58351
-1.55823
-1.50875
-1.48356
-1.53304
-1.50875
-1.46025
-1.43507
-1.48356
-1.46025
-1.41275
-1.38756
-1.43507
-1.41275
-1.36623
-1.34104
-1.38756
-1.36623
-1.3207
-1.29551
-1.34104
-1.3207
-1.27615
-1.25097
-1.29551
-1.27615
-1.2326
-1.20741
-1.25097
-1.2326
-1.19003
-1.16484
-1.20741
-1.19003
-1.14845
-1.12326
-1.16484
-1.14845
-1.10785
-1.08267
-1.12326
-1.10785
-1.06825
-1.04306
-1.08267
-1.06825
-1.02963
-1.00445
-1.04306
-1.02963
-0.992
-0.966815
-1.00445
-0.992
-0.955358
-0.930173
-0.966815
-0.955358
-0.919703
-0.894518
-0.930173
-0.919703
-0.885036
-0.85985
-0.894518
-0.885036
-0.851356
-0.826171
-0.85985
-0.851356
-0.818664
-0.793479
-0.826171
-0.818664
-0.78696
-0.761775
-0.793479
-0.78696
-0.756243
-0.731058
-0.761775
-0.756243
-0.726514
-0.701329
-0.731058
-0.726514
-0.697773
-0.672588
-0.701329
-0.697773
-0.67002
-0.644834
-0.672588
-0.67002
-0.643254
-0.618068
-0.644834
-0.643254
-0.617475
-0.59229
-0.618068
-0.617475
-0.592685
-0.567499
-0.59229
-0.592685
-0.568882
-0.543696
-0.567499
-0.568882
-0.546066
-0.520881
-0.543696
-0.546066
-0.524239
-0.499053
-0.520881
-0.524239
-0.503399
-0.478213
-0.499053
-0.503399
-0.483546
-0.458361
-0.478213
-0.483546
-0.464681
-0.439496
-0.458361
-0.464681
-0.446804
-0.421619
-0.439496
-0.446804
-0.429915
-0.40473
-0.421619
-0.429915
-0.414013
-0.388828
-0.40473
-0.414013
-0.399099
-0.373914
-0.388828
-0.399099
-0.385173
-0.359987
-0.373914
-0.385173
-0.372234
-0.347049
-0.359987
-0.372234
-0.360283
-0.335098
-0.347049
-0.360283
-0.349319
-0.324134
-0.335098
-0.349319
-0.339343
-0.314158
-0.324134
-0.339343
-0.330355
-0.30517
-0.314158
-0.330355
-0.322355
-0.297169
-0.30517
-0.322355
-0.315342
-0.290157
-0.297169
-0.315342
-0.309317
-0.284131
-0.290157
-0.309317
-0.304279
-0.279094
-0.284131
-0.304279
-0.300229
-0.275044
-0.279094
-0.300229
-0.297167
-0.271982
-0.275044
-0.297167
-0.295092
-0.269907
-0.271982
-0.295092
-0.294005
-0.26882
-0.269907
-0.294005
-0.293906
-0.268721
-0.26882
-0.293906
-0.294794
-0.269609
-0.268721
-0.294794
-0.29667
-0.271485
-0.269609
-0.29667
-0.299534
-0.274349
-0.271485
-0.299534
-0.303385
-0.2782
-0.274349
-0.303385
-0.308224
-0.283039
-0.2782
-0.308224
-0.314051
-0.288866
-0.283039
-0.314051
-0.320865
-0.29568
-0.288866
-0.320865
-0.328667
-0.303482
-0.29568
-0.328667
-0.337457
-0.312272
-0.303482
-0.337457
-0.347234
-0.322049
-0.312272
-0.347234
-0.357999
-0.332814
-0.322049
-0.357999
-0.369751
-0.344566
-0.332814
-0.369751
-0.382492
-0.357306
-0.344566
-0.382492
-0.39622
-0.371034
-0.357306
-0.39622
-0.410935
-0.38575
-0.371034
-0.410935
-0.426638
-0.401453
-0.38575
-0.426638
-0.443329
-0.418144
-0.401453
-0.443329
-0.461008
-0.435822
-0.418144
-0.461008
-0.479674
-0.454488
-0.435822
-0.479674
-0.499327
-0.474142
-0.454488
-0.499327
-0.519969
-0.494784
-0.474142
-0.519969
-0.541598
-0.516413
-0.494784
-0.541598
-0.564215
-0.53903
-0.516413
-0.564215
-0.587819
-0.562634
-0.53903
-0.587819
-0.612411
-0.587226
-0.562634
-0.612411
-0.637991
-0.612806
-0.587226
-0.637991
-0.664558
-0.639373
-0.612806
-0.664558
-0.692113
-0.666928
-0.639373
-0.692113
-0.720656
-0.695471
-0.666928
-0.720656
-0.750186
-0.725001
-0.695471
-0.750186
-0.780704
-0.755519
-0.725001
-0.780704
-0.81221
-0.787025
-0.755519
-0.81221
-0.844703
-0.819518
-0.787025
-0.844703
-0.878184
-0.852999
-0.819518
-5.2664
-5.16754
-5.14334
-5.24221
-5.16754
-5.06966
-5.04546
-5.14334
-5.06966
-4.97277
-4.94858
-5.04546
-4.97277
-4.87687
-4.85267
-4.94858
-4.87687
-4.78196
-4.75776
-4.85267
-4.78196
-4.68803
-4.66383
-4.75776
-4.68803
-4.59509
-4.57089
-4.66383
-4.59509
-4.50314
-4.47894
-4.57089
-4.50314
-4.41218
-4.38798
-4.47894
-4.41218
-4.3222
-4.298
-4.38798
-4.3222
-4.23321
-4.20902
-4.298
-4.23321
-4.14521
-4.12101
-4.20902
-4.14521
-4.0582
-4.034
-4.12101
-4.0582
-3.97217
-3.94798
-4.034
-3.97217
-3.88714
-3.86294
-3.94798
-3.88714
-3.80309
-3.77889
-3.86294
-3.80309
-3.72002
-3.69583
-3.77889
-3.72002
-3.63795
-3.61375
-3.69583
-3.63795
-3.55686
-3.53267
-3.61375
-3.55686
-3.47676
-3.45257
-3.53267
-3.47676
-3.39765
-3.37345
-3.45257
-3.39765
-3.31953
-3.29533
-3.37345
-3.31953
-3.24239
-3.21819
-3.29533
-3.24239
-3.16624
-3.14205
-3.21819
-3.16624
-3.09108
-3.06688
-3.14205
-3.09108
-3.01691
-2.99271
-3.06688
-3.01691
-2.94372
-2.91953
-2.99271
-2.94372
-2.87152
-2.84733
-2.91953
-2.87152
-2.80031
-2.77612
-2.84733
-2.80031
-2.73009
-2.70589
-2.77612
-2.73009
-2.66086
-2.63666
-2.70589
-2.66086
-2.59261
-2.56841
-2.63666
-2.59261
-2.52535
-2.50115
-2.56841
-2.52535
-2.45908
-2.43488
-2.50115
-2.45908
-2.39379
-2.3696
-2.43488
-2.39379
-2.3295
-2.3053
-2.3696
-2.3295
-2.26619
-2.24199
-2.3053
-2.26619
-2.20387
-2.17967
-2.24199
-2.20387
-2.14253
-2.11833
-2.17967
-2.14253
-2.08219
-2.05799
-2.11833
-2.08219
-2.02283
-1.99863
-2.05799
-2.02283
-1.96446
-1.94026
-1.99863
-1.96446
-1.90707
-1.88288
-1.94026
-1.90707
-1.85068
-1.82648
-1.88288
-1.85068
-1.79527
-1.77107
-1.82648
-1.79527
-1.74085
-1.71665
-1.77107
-1.74085
-1.68742
-1.66322
-1.71665
-1.68742
-1.63497
-1.61077
-1.66322
-1.63497
-1.58351
-1.55932
-1.61077
-1.58351
-1.53304
-1.50885
-1.55932
-1.53304
-1.48356
-1.45936
-1.50885
-1.48356
-1.43507
-1.41087
-1.45936
-1.43507
-1.38756
-1.36336
-1.41087
-1.38756
-1.34104
-1.31684
-1.36336
-1.34104
-1.29551
-1.27131
-1.31684
-1.29551
-1.25097
-1.22677
-1.27131
-1.25097
-1.20741
-1.18321
-1.22677
-1.20741
-1.16484
-1.14064
-1.18321
-1.16484
-1.12326
-1.09906
-1.14064
-1.12326
-1.08267
-1.05847
-1.09906
-1.08267
-1.04306
-1.01887
-1.05847
-1.04306
-1.00445
-0.980248
-1.01887
-1.00445
-0.966815
-0.942617
-0.980248
-0.966815
-0.930173
-0.905975
-0.942617
-0.930173
-0.894518
-0.87032
-0.905975
-0.894518
-0.85985
-0.835653
-0.87032
-0.85985
-0.826171
-0.801973
-0.835653
-0.826171
-0.793479
-0.769281
-0.801973
-0.793479
-0.761775
-0.737577
-0.769281
-0.761775
-0.731058
-0.706861
-0.737577
-0.731058
-0.701329
-0.677132
-0.706861
-0.701329
-0.672588
-0.64839
-0.677132
-0.672588
-0.644834
-0.620637
-0.64839
-0.644834
-0.618068
-0.593871
-0.620637
-0.618068
-0.59229
-0.568093
-0.593871
-0.59229
-0.567499
-0.543302
-0.568093
-0.567499
-0.543696
-0.519499
-0.543302
-0.543696
-0.520881
-0.496684
-0.519499
-0.520881
-0.499053
-0.474856
-0.496684
-0.499053
-0.478213
-0.454016
-0.474856
-0.478213
-0.458361
-0.434163
-0.454016
-0.458361
-0.439496
-0.415299
-0.434163
-0.439496
-0.421619
-0.397422
-0.415299
-0.421619
-0.40473
-0.380532
-0.397422
-0.40473
-0.388828
-0.36463
-0.380532
-0.388828
-0.373914
-0.349716
-0.36463
-0.373914
-0.359987
-0.33579
-0.349716
-0.359987
-0.347049
-0.322851
-0.33579
-0.347049
-0.335098
-0.3109
-0.322851
-0.335098
-0.324134
-0.299936
-0.3109
-0.324134
-0.314158
-0.289961
-0.299936
-0.314158
-0.30517
-0.280972
-0.289961
-0.30517
-0.297169
-0.272972
-0.280972
-0.297169
-0.290157
-0.265959
-0.272972
-0.290157
-0.284131
-0.259934
-0.265959
-0.284131
-0.279094
-0.254896
-0.259934
-0.279094
-0.275044
-0.250846
-0.254896
-0.275044
-0.271982
-0.247784
-0.250846
-0.271982
-0.269907
-0.245709
-0.247784
-0.269907
-0.26882
-0.244623
-0.245709
-0.26882
-0.268721
-0.244523
-0.244623
-0.268721
-0.269609
-0.245412
-0.244523
-0.269609
-0.271485
-0.247288
-0.245412
-0.271485
-0.274349
-0.250151
-0.247288
-0.274349
-0.2782
-0.254003
-0.250151
-0.2782
-0.283039
-0.258842
-0.254003
-0.283039
-0.288866
-0.264668
-0.258842
-0.288866
-0.29568
-0.271482
-0.264668
-0.29568
-0.303482
-0.279284
-0.271482
-0.303482
-0.312272
-0.288074
-0.279284
-0.312272
-0.322049
-0.297851
-0.288074
-0.322049
-0.332814
-0.308616
-0.297851
-0.332814
-0.344566
-0.320369
-0.308616
-0.344566
-0.357306
-0.333109
-0.320369
-0.357306
-0.371034
-0.346837
-0.333109
-0.371034
-0.38575
-0.361552
-0.346837
-0.38575
-0.401453
-0.377255
-0.361552
-0.401453
-0.418144
-0.393946
-0.377255
-0.418144
-0.435822
-0.411625
-0.393946
-0.435822
-0.454488
-0.430291
-0.411625
-0.454488
-0.474142
-0.449945
-0.430291
-0.474142
-0.494784
-0.470586
-0.449945
-0.494784
-0.516413
-0.492215
-0.470586
-0.516413
-0.53903
-0.514832
-0.492215
-0.53903
-0.562634
-0.538436
-0.514832
-0.562634
-0.587226
-0.563028
-0.538436
-0.587226
-0.612806
-0.588608
-0.563028
-0.612806
-0.639373
-0.615176
-0.588608
-0.639373
-0.666928
-0.642731
-0.615176
-0.666928
-0.695471
-0.671273
-0.642731
-0.695471
-0.725001
-0.700804
-0.671273
-0.725001
-0.755519
-0.731322
-0.700804
-0.755519
-0.787025
-0.762827
-0.731322
-0.787025
-0.819518
-0.795321
-0.762827
-0.819518
-0.852999
-0.828802
-0.795321
-5.24221
-5.14334
-5.12013
-5.219
-5.14334
-5.04546
-5.02225
-5.12013
-5.04546
-4.94858
-4.92537
-5.02225
-4.94858
-4.85267
-4.82946
-4.92537
-4.85267
-4.75776
-4.73455
-4.82946
-4.75776
-4.66383
-4.64062
-4.73455
-4.66383
-4.57089
-4.54768
-4.64062
-4.57089
-4.47894
-4.45573
-4.54768
-4.47894
-4.38798
-4.36477
-4.45573
-4.38798
-4.298
-4.27479
-4.36477
-4.298
-4.20902
-4.18581
-4.27479
-4.20902
-4.12101
-4.09781
-4.18581
-4.12101
-4.034
-4.01079
-4.09781
-4.034
-3.94798
-3.92477
-4.01079
-3.94798
-3.86294
-3.83973
-3.92477
-3.86294
-3.77889
-3.75568
-3.83973
-3.77889
-3.69583
-3.67262
-3.75568
-3.69583
-3.61375
-3.59054
-3.67262
-3.61375
-3.53267
-3.50946
-3.59054
-3.53267
-3.45257
-3.42936
-3.50946
-3.45257
-3.37345
-3.35024
-3.42936
-3.37345
-3.29533
-3.27212
-3.35024
-3.29533
-3.21819
-3.19498
-3.27212
-3.21819
-3.14205
-3.11884
-3.19498
-3.14205
-3.06688
-3.04367
-3.11884
-3.06688
-2.99271
-2.9695
-3.04367
-2.99271
-2.91953
-2.89632
-2.9695
-2.91953
-2.84733
-2.82412
-2.89632
-2.84733
-2.77612
-2.75291
-2.82412
-2.77612
-2.70589
-2.68268
-2.75291
-2.70589
-2.63666
-2.61345
-2.68268
-2.63666
-2.56841
-2.5452
-2.61345
-2.56841
-2.50115
-2.47794
-2.5452
-2.50115
-2.43488
-2.41167
-2.47794
-2.43488
-2.3696
-2.34639
-2.41167
-2.3696
-2.3053
-2.28209
-2.34639
-2.3053
-2.24199
-2.21878
-2.28209
-2.24199
-2.17967
-2.15646
-2.21878
-2.17967
-2.11833
-2.09512
-2.15646
-2.11833
-2.05799
-2.03478
-2.09512
-2.05799
-1.99863
-1.97542
-2.03478
-1.99863
-1.94026
-1.91705
-1.97542
-1.94026
-1.88288
-1.85967
-1.91705
-1.88288
-1.82648
-1.80327
-1.85967
-1.82648
-1.77107
-1.74786
-1.80327
-1.77107
-1.71665
-1.69344
-1.74786
-1.71665
-1.66322
-1.64001
-1.69344
-1.66322
-1.61077
-1.58756
-1.64001
-1.61077
-1.55932
-1.53611
-1.58756
-1.55932
-1.50885
-1.48564
-1.53611
-1.50885
-1.45936
-1.43615
-1.48564
-1.45936
-1.41087
-1.38766
-1.43615
-1.41087
-1.36336
-1.34015
-1.38766
-1.36336
-1.31684
-1.29363
-1.34015
-1.31684
-1.27131
-1.2481
-1.29363
-1.27131
-1.22677
-1.20356
-1.2481
-1.22677
-1.18321
-1.16
-1.20356
-1.18321
-1.14064
-1.11743
-1.16
-1.14064
-1.09906
-1.07585
-1.11743
-1.09906
-1.05847
-1.03526
-1.07585
-1.05847
-1.01887
-0.995656
-1.03526
-1.01887
-0.980248
-0.957038
-0.995656
-0.980248
-0.942617
-0.919408
-0.957038
-0.942617
-0.905975
-0.882765
-0.919408
-0.905975
-0.87032
-0.84711
-0.882765
-0.87032
-0.835653
-0.812443
-0.84711
-0.835653
-0.801973
-0.778764
-0.812443
-0.801973
-0.769281
-0.746072
-0.778764
-0.769281
-0.737577
-0.714367
-0.746072
-0.737577
-0.706861
-0.683651
-0.714367
-0.706861
-0.677132
-0.653922
-0.683651
-0.677132
-0.64839
-0.625181
-0.653922
-0.64839
-0.620637
-0.597427
-0.625181
-0.620637
-0.593871
-0.570661
-0.597427
-0.593871
-0.568093
-0.544883
-0.570661
-0.568093
-0.543302
-0.520092
-0.544883
-0.543302
-0.519499
-0.496289
-0.520092
-0.519499
-0.496684
-0.473474
-0.496289
-0.496684
-0.474856
-0.451646
-0.473474
-0.474856
-0.454016
-0.430806
-0.451646
-0.454016
-0.434163
-0.410954
-0.430806
-0.434163
-0.415299
-0.392089
-0.410954
-0.415299
-0.397422
-0.374212
-0.392089
-0.397422
-0.380532
-0.357322
-0.374212
-0.380532
-0.36463
-0.341421
-0.357322
-0.36463
-0.349716
-0.326507
-0.341421
-0.349716
-0.33579
-0.31258
-0.326507
-0.33579
-0.322851
-0.299641
-0.31258
-0.322851
-0.3109
-0.28769
-0.299641
-0.3109
-0.299936
-0.276727
-0.28769
-0.299936
-0.289961
-0.266751
-0.276727
-0.289961
-0.280972
-0.257763
-0.266751
-0.280972
-0.272972
-0.249762
-0.257763
-0.272972
-0.265959
-0.242749
-0.249762
-0.265959
-0.259934
-0.236724
-0.242749
-0.259934
-0.254896
-0.231686
-0.236724
-0.254896
-0.250846
-0.227636
-0.231686
-0.250846
-0.247784
-0.224574
-0.227636
-0.247784
-0.245709
-0.2225
-0.224574
-0.245709
-0.244623
-0.221413
-0.2225
-0.244623
-0.244523
-0.221313
-0.221413
-0.244523
-0.245412
-0.222202
-0.221313
-0.245412
-0.247288
-0.224078
-0.222202
-0.247288
-0.250151
-0.226941
-0.224078
-0.250151
-0.254003
-0.230793
-0.226941
-0.254003
-0.258842
-0.235632
-0.230793
-0.258842
-0.264668
-0.241458
-0.235632
-0.264668
-0.271482
-0.248273
-0.241458
-0.271482
-0.279284
-0.256075
-0.248273
-0.279284
-0.288074
-0.264864
-0.256075
-0.288074
-0.297851
-0.274641
-0.264864
-0.297851
-0.308616
-0.285406
-0.274641
-0.308616
-0.320369
-0.297159
-0.285406
-0.320369
-0.333109
-0.309899
-0.297159
-0.333109
-0.346837
-0.323627
-0.309899
-0.346837
-0.361552
-0.338342
-0.323627
-0.361552
-0.377255
-0.354046
-0.338342
-0.377255
-0.393946
-0.370736
-0.354046
-0.393946
-0.411625
-0.388415
-0.370736
-0.411625
-0.430291
-0.407081
-0.388415
-0.430291
-0.449945
-0.426735
-0.407081
-0.449945
-0.470586
-0.447376
-0.426735
-0.470586
-0.492215
-0.469005
-0.447376
-0.492215