# vtk DataFile Version 1.0
unstructured Grid
ASCII
DATASET UNSTRUCTURED_GRID
POINTS 23432 float 
0 0	 0.0
0.0222222 0	 0.0
0.0222222 0.0222222	 0.0
0 0.0222222	 0.0
0.0222222 0	 0.0
0.0444444 0	 0.0
0.0444444 0.0222222	 0.0
0.0222222 0.0222222	 0.0
0.0444444 0	 0.0
0.0666667 0	 0.0
0.0666667 0.0222222	 0.0
0.0444444 0.0222222	 0.0
0.0666667 0	 0.0
0.0888889 0	 0.0
0.0888889 0.0222222	 0.0
0.0666667 0.0222222	 0.0
0.0888889 0	 0.0
0.111111 0	 0.0
0.111111 0.0222222	 0.0
0.0888889 0.0222222	 0.0
0.111111 0	 0.0
0.133333 0	 0.0
0.133333 0.0222222	 0.0
0.111111 0.0222222	 0.0
0.133333 0	 0.0
0.155556 0	 0.0
0.155556 0.0222222	 0.0
0.133333 0.0222222	 0.0
0.155556 0	 0.0
0.177778 0	 0.0
0.177778 0.0222222	 0.0
0.155556 0.0222222	 0.0
0.177778 0	 0.0
0.2 0	 0.0
0.2 0.0222222	 0.0
0.177778 0.0222222	 0.0
0.2 0	 0.0
0.222222 0	 0.0
0.222222 0.0222222	 0.0
0.2 0.0222222	 0.0
0.222222 0	 0.0
0.244444 0	 0.0
0.244444 0.0222222	 0.0
0.222222 0.0222222	 0.0
0.244444 0	 0.0
0.266667 0	 0.0
0.266667 0.0222222	 0.0
0.244444 0.0222222	 0.0
0.266667 0	 0.0
0.288889 0	 0.0
0.288889 0.0222222	 0.0
0.266667 0.0222222	 0.0
0.288889 0	 0.0
0.311111 0	 0.0
0.311111 0.0222222	 0.0
0.288889 0.0222222	 0.0
0.311111 0	 0.0
0.333333 0	 0.0
0.333333 0.0222222	 0.0
0.311111 0.0222222	 0.0
0.333333 0	 0.0
0.355556 0	 0.0
0.355556 0.0222222	 0.0
0.333333 0.0222222	 0.0
0.355556 0	 0.0
0.377778 0	 0.0
0.377778 0.0222222	 0.0
0.355556 0.0222222	 0.0
0.377778 0	 0.0
0.4 0	 0.0
0.4 0.0222222	 0.0
0.377778 0.0222222	 0.0
0.4 0	 0.0
0.422222 0	 0.0
0.422222 0.0222222	 0.0
0.4 0.0222222	 0.0
0.422222 0	 0.0
0.444444 0	 0.0
0.444444 0.0222222	 0.0
0.422222 0.0222222	 0.0
0.444444 0	 0.0
0.466667 0	 0.0
0.466667 0.0222222	 0.0
0.444444 0.0222222	 0.0
0.466667 0	 0.0
0.488889 0	 0.0
0.488889 0.0222222	 0.0
0.466667 0.0222222	 0.0
0.488889 0	 0.0
0.511111 0	 0.0
0.511111 0.0222222	 0.0
0.488889 0.0222222	 0.0
0.511111 0	 0.0
0.533333 0	 0.0
0.533333 0.0222222	 0.0
0.511111 0.0222222	 0.0
0.533333 0	 0.0
0.555556 0	 0.0
0.555556 0.0222222	 0.0
0.533333 0.0222222	 0.0
0.555556 0	 0.0
0.577778 0	 0.0
0.577778 0.0222222	 0.0
0.555556 0.0222222	 0.0
0.577778 0	 0.0
0.6 0	 0.0
0.6 0.0222222	 0.0
0.577778 0.0222222	 0.0
0.6 0	 0.0
0.622222 0	 0.0
0.622222 0.0222222	 0.0
0.6 0.0222222	 0.0
0.622222 0	 0.0
0.644444 0	 0.0
0.644444 0.0222222	 0.0
0.622222 0.0222222	 0.0
0.644444 0	 0.0
0.666667 0	 0.0
0.666667 0.0222222	 0.0
0.644444 0.0222222	 0.0
0.666667 0	 0.0
0.688889 0	 0.0
0.688889 0.0222222	 0.0
0.666667 0.0222222	 0.0
0.688889 0	 0.0
0.711111 0	 0.0
0.711111 0.0222222	 0.0
0.688889 0.0222222	 0.0
0.711111 0	 0.0
0.733333 0	 0.0
0.733333 0.0222222	 0.0
0.711111 0.0222222	 0.0
0.733333 0	 0.0
0.755556 0	 0.0
0.755556 0.0222222	 0.0
0.733333 0.0222222	 0.0
0.755556 0	 0.0
0.777778 0	 0.0
0.777778 0.0222222	 0.0
0.755556 0.0222222	 0.0
0.777778 0	 0.0
0.8 0	 0.0
0.8 0.0222222	 0.0
0.777778 0.0222222	 0.0
0.8 0	 0.0
0.822222 0	 0.0
0.822222 0.0222222	 0.0
0.8 0.0222222	 0.0
0.822222 0	 0.0
0.844444 0	 0.0
0.844444 0.0222222	 0.0
0.822222 0.0222222	 0.0
0.844444 0	 0.0
0.866667 0	 0.0
0.866667 0.0222222	 0.0
0.844444 0.0222222	 0.0
0.866667 0	 0.0
0.888889 0	 0.0
0.888889 0.0222222	 0.0
0.866667 0.0222222	 0.0
0.888889 0	 0.0
0.911111 0	 0.0
0.911111 0.0222222	 0.0
0.888889 0.0222222	 0.0
0.911111 0	 0.0
0.933333 0	 0.0
0.933333 0.0222222	 0.0
0.911111 0.0222222	 0.0
0.933333 0	 0.0
0.955556 0	 0.0
0.955556 0.0222222	 0.0
0.933333 0.0222222	 0.0
0.955556 0	 0.0
0.977778 0	 0.0
0.977778 0.0222222	 0.0
0.955556 0.0222222	 0.0
0.977778 0	 0.0
1 0	 0.0
1 0.0222222	 0.0
0.977778 0.0222222	 0.0
1 0	 0.0
1.02222 0	 0.0
1.02222 0.0222222	 0.0
1 0.0222222	 0.0
1.02222 0	 0.0
1.04444 0	 0.0
1.04444 0.0222222	 0.0
1.02222 0.0222222	 0.0
1.04444 0	 0.0
1.06667 0	 0.0
1.06667 0.0222222	 0.0
1.04444 0.0222222	 0.0
1.06667 0	 0.0
1.08889 0	 0.0
1.08889 0.0222222	 0.0
1.06667 0.0222222	 0.0
1.08889 0	 0.0
1.11111 0	 0.0
1.11111 0.0222222	 0.0
1.08889 0.0222222	 0.0
1.11111 0	 0.0
1.13333 0	 0.0
1.13333 0.0222222	 0.0
1.11111 0.0222222	 0.0
1.13333 0	 0.0
1.15556 0	 0.0
1.15556 0.0222222	 0.0
1.13333 0.0222222	 0.0
1.15556 0	 0.0
1.17778 0	 0.0
1.17778 0.0222222	 0.0
1.15556 0.0222222	 0.0
1.17778 0	 0.0
1.2 0	 0.0
1.2 0.0222222	 0.0
1.17778 0.0222222	 0.0
1.2 0	 0.0
1.22222 0	 0.0
1.22222 0.0222222	 0.0
1.2 0.0222222	 0.0
1.22222 0	 0.0
1.24444 0	 0.0
1.24444 0.0222222	 0.0
1.22222 0.0222222	 0.0
1.24444 0	 0.0
1.26667 0	 0.0
1.26667 0.0222222	 0.0
1.24444 0.0222222	 0.0
1.26667 0	 0.0
1.28889 0	 0.0
1.28889 0.0222222	 0.0
1.26667 0.0222222	 0.0
1.28889 0	 0.0
1.31111 0	 0.0
1.31111 0.0222222	 0.0
1.28889 0.0222222	 0.0
1.31111 0	 0.0
1.33333 0	 0.0
1.33333 0.0222222	 0.0
1.31111 0.0222222	 0.0
1.33333 0	 0.0
1.35556 0	 0.0
1.35556 0.0222222	 0.0
1.33333 0.0222222	 0.0
1.35556 0	 0.0
1.37778 0	 0.0
1.37778 0.0222222	 0.0
1.35556 0.0222222	 0.0
1.37778 0	 0.0
1.4 0	 0.0
1.4 0.0222222	 0.0
1.37778 0.0222222	 0.0
1.4 0	 0.0
1.42222 0	 0.0
1.42222 0.0222222	 0.0
1.4 0.0222222	 0.0
1.42222 0	 0.0
1.44444 0	 0.0
1.44444 0.0222222	 0.0
1.42222 0.0222222	 0.0
1.44444 0	 0.0
1.46667 0	 0.0
1.46667 0.0222222	 0.0
1.44444 0.0222222	 0.0
1.46667 0	 0.0
1.48889 0	 0.0
1.48889 0.0222222	 0.0
1.46667 0.0222222	 0.0
1.48889 0	 0.0
1.51111 0	 0.0
1.51111 0.0222222	 0.0
1.48889 0.0222222	 0.0
1.51111 0	 0.0
1.53333 0	 0.0
1.53333 0.0222222	 0.0
1.51111 0.0222222	 0.0
1.53333 0	 0.0
1.55556 0	 0.0
1.55556 0.0222222	 0.0
1.53333 0.0222222	 0.0
1.55556 0	 0.0
1.57778 0	 0.0
1.57778 0.0222222	 0.0
1.55556 0.0222222	 0.0
1.57778 0	 0.0
1.6 0	 0.0
1.6 0.0222222	 0.0
1.57778 0.0222222	 0.0
1.6 0	 0.0
1.62222 0	 0.0
1.62222 0.0222222	 0.0
1.6 0.0222222	 0.0
1.62222 0	 0.0
1.64444 0	 0.0
1.64444 0.0222222	 0.0
1.62222 0.0222222	 0.0
1.64444 0	 0.0
1.66667 0	 0.0
1.66667 0.0222222	 0.0
1.64444 0.0222222	 0.0
1.66667 0	 0.0
1.68889 0	 0.0
1.68889 0.0222222	 0.0
1.66667 0.0222222	 0.0
1.68889 0	 0.0
1.71111 0	 0.0
1.71111 0.0222222	 0.0
1.68889 0.0222222	 0.0
1.71111 0	 0.0
1.73333 0	 0.0
1.73333 0.0222222	 0.0
1.71111 0.0222222	 0.0
1.73333 0	 0.0
1.75556 0	 0.0
1.75556 0.0222222	 0.0
1.73333 0.0222222	 0.0
1.75556 0	 0.0
1.77778 0	 0.0
1.77778 0.0222222	 0.0
1.75556 0.0222222	 0.0
1.77778 0	 0.0
1.8 0	 0.0
1.8 0.0222222	 0.0
1.77778 0.0222222	 0.0
1.8 0	 0.0
1.82222 0	 0.0
1.82222 0.0222222	 0.0
1.8 0.0222222	 0.0
1.82222 0	 0.0
1.84444 0	 0.0
1.84444 0.0222222	 0.0
1.82222 0.0222222	 0.0
1.84444 0	 0.0
1.86667 0	 0.0
1.86667 0.0222222	 0.0
1.84444 0.0222222	 0.0
1.86667 0	 0.0
1.88889 0	 0.0
1.88889 0.0222222	 0.0
1.86667 0.0222222	 0.0
1.88889 0	 0.0
1.91111 0	 0.0
1.91111 0.0222222	 0.0
1.88889 0.0222222	 0.0
1.91111 0	 0.0
1.93333 0	 0.0
1.93333 0.0222222	 0.0
1.91111 0.0222222	 0.0
1.93333 0	 0.0
1.95556 0	 0.0
1.95556 0.0222222	 0.0
1.93333 0.0222222	 0.0
1.95556 0	 0.0
1.97778 0	 0.0
1.97778 0.0222222	 0.0
1.95556 0.0222222	 0.0
1.97778 0	 0.0
2 0	 0.0
2 0.0222222	 0.0
1.97778 0.0222222	 0.0
2 0	 0.0
2.02222 0	 0.0
2.02222 0.0222222	 0.0
2 0.0222222	 0.0
2.02222 0	 0.0
2.04444 0	 0.0
2.04444 0.0222222	 0.0
2.02222 0.0222222	 0.0
2.04444 0	 0.0
2.06667 0	 0.0
2.06667 0.0222222	 0.0
2.04444 0.0222222	 0.0
2.06667 0	 0.0
2.08889 0	 0.0
2.08889 0.0222222	 0.0
2.06667 0.0222222	 0.0
2.08889 0	 0.0
2.11111 0	 0.0
2.11111 0.0222222	 0.0
2.08889 0.0222222	 0.0
2.11111 0	 0.0
2.13333 0	 0.0
2.13333 0.0222222	 0.0
2.11111 0.0222222	 0.0
2.13333 0	 0.0
2.15556 0	 0.0
2.15556 0.0222222	 0.0
2.13333 0.0222222	 0.0
2.15556 0	 0.0
2.17778 0	 0.0
2.17778 0.0222222	 0.0
2.15556 0.0222222	 0.0
2.17778 0	 0.0
2.2 0	 0.0
2.2 0.0222222	 0.0
2.17778 0.0222222	 0.0
2.2 0	 0.0
2.22222 0	 0.0
2.22222 0.0222222	 0.0
2.2 0.0222222	 0.0
2.22222 0	 0.0
2.24444 0	 0.0
2.24444 0.0222222	 0.0
2.22222 0.0222222	 0.0
2.24444 0	 0.0
2.26667 0	 0.0
2.26667 0.0222222	 0.0
2.24444 0.0222222	 0.0
2.26667 0	 0.0
2.28889 0	 0.0
2.28889 0.0222222	 0.0
2.26667 0.0222222	 0.0
2.28889 0	 0.0
2.31111 0	 0.0
2.31111 0.0222222	 0.0
2.28889 0.0222222	 0.0
2.31111 0	 0.0
2.33333 0	 0.0
2.33333 0.0222222	 0.0
2.31111 0.0222222	 0.0
2.33333 0	 0.0
2.35556 0	 0.0
2.35556 0.0222222	 0.0
2.33333 0.0222222	 0.0
2.35556 0	 0.0
2.37778 0	 0.0
2.37778 0.0222222	 0.0
2.35556 0.0222222	 0.0
2.37778 0	 0.0
2.4 0	 0.0
2.4 0.0222222	 0.0
2.37778 0.0222222	 0.0
2.4 0	 0.0
2.42222 0	 0.0
2.42222 0.0222222	 0.0
2.4 0.0222222	 0.0
2.42222 0	 0.0
2.44444 0	 0.0
2.44444 0.0222222	 0.0
2.42222 0.0222222	 0.0
2.44444 0	 0.0
2.46667 0	 0.0
2.46667 0.0222222	 0.0
2.44444 0.0222222	 0.0
2.46667 0	 0.0
2.48889 0	 0.0
2.48889 0.0222222	 0.0
2.46667 0.0222222	 0.0
2.48889 0	 0.0
2.51111 0	 0.0
2.51111 0.0222222	 0.0
2.48889 0.0222222	 0.0
2.51111 0	 0.0
2.53333 0	 0.0
2.53333 0.0222222	 0.0
2.51111 0.0222222	 0.0
2.53333 0	 0.0
2.55556 0	 0.0
2.55556 0.0222222	 0.0
2.53333 0.0222222	 0.0
2.55556 0	 0.0
2.57778 0	 0.0
2.57778 0.0222222	 0.0
2.55556 0.0222222	 0.0
2.57778 0	 0.0
2.6 0	 0.0
2.6 0.0222222	 0.0
2.57778 0.0222222	 0.0
2.6 0	 0.0
2.62222 0	 0.0
2.62222 0.0222222	 0.0
2.6 0.0222222	 0.0
2.62222 0	 0.0
2.64444 0	 0.0
2.64444 0.0222222	 0.0
2.62222 0.0222222	 0.0
2.64444 0	 0.0
2.66667 0	 0.0
2.66667 0.0222222	 0.0
2.64444 0.0222222	 0.0
2.66667 0	 0.0
2.68889 0	 0.0
2.68889 0.0222222	 0.0
2.66667 0.0222222	 0.0
2.68889 0	 0.0
2.71111 0	 0.0
2.71111 0.0222222	 0.0
2.68889 0.0222222	 0.0
2.71111 0	 0.0
2.73333 0	 0.0
2.73333 0.0222222	 0.0
2.71111 0.0222222	 0.0
2.73333 0	 0.0
2.75556 0	 0.0
2.75556 0.0222222	 0.0
2.73333 0.0222222	 0.0
2.75556 0	 0.0
2.77778 0	 0.0
2.77778 0.0222222	 0.0
2.75556 0.0222222	 0.0
2.77778 0	 0.0
2.8 0	 0.0
2.8 0.0222222	 0.0
2.77778 0.0222222	 0.0
2.8 0	 0.0
2.82222 0	 0.0
2.82222 0.0222222	 0.0
2.8 0.0222222	 0.0
2.82222 0	 0.0
2.84444 0	 0.0
2.84444 0.0222222	 0.0
2.82222 0.0222222	 0.0
2.84444 0	 0.0
2.86667 0	 0.0
2.86667 0.0222222	 0.0
2.84444 0.0222222	 0.0
2.86667 0	 0.0
2.88889 0	 0.0
2.88889 0.0222222	 0.0
2.86667 0.0222222	 0.0
2.88889 0	 0.0
2.91111 0	 0.0
2.91111 0.0222222	 0.0
2.88889 0.0222222	 0.0
2.91111 0	 0.0
[...]
POINT_DATA 23432
SCALARS levelset_first float
LOOKUP_TABLE default
-0.875868
-0.843226
-0.817053
-0.849695
-0.843226
-0.811571
-0.785398
-0.817053
-0.811571
-0.780904
-0.754731
-0.785398
-0.780904
-0.751225
-0.725052
-0.754731
-0.751225
-0.722533
-0.69636
-0.725052
-0.722533
-0.694829
-0.668656
-0.69636
-0.694829
-0.668112
-0.641939
-0.668656
-0.668112
-0.642383
-0.61621
-0.641939
-0.642383
-0.617642
-0.591469
-0.61621
-0.617642
-0.593888
-0.567716
-0.591469
-0.593888
-0.571123
-0.54495
-0.567716
-0.571123
-0.549344
-0.523172
-0.54495
-0.549344
-0.528554
-0.502381
-0.523172
-0.528554
-0.508751
-0.482578
-0.502381
-0.508751
-0.489936
-0.463763
-0.482578
-0.489936
-0.472108
-0.445935
-0.463763
-0.472108
-0.455268
-0.429095
-0.445935
-0.455268
-0.439416
-0.413243
-0.429095
-0.439416
-0.424551
-0.398378
-0.413243
-0.424551
-0.410674
-0.384501
-0.398378
-0.410674
-0.397785
-0.371612
-0.384501
-0.397785
-0.385883
-0.35971
-0.371612
-0.385883
-0.374969
-0.348796
-0.35971
-0.374969
-0.365043
-0.33887
-0.348796
-0.365043
-0.356104
-0.329931
-0.33887
-0.356104
-0.348153
-0.32198
-0.329931
-0.348153
-0.341189
-0.315017
-0.32198
-0.341189
-0.335214
-0.309041
-0.315017
-0.335214
-0.330226
-0.304053
-0.309041
-0.330226
-0.326225
-0.300052
-0.304053
-0.326225
-0.323212
-0.297039
-0.300052
-0.323212
-0.321187
-0.295014
-0.297039
-0.321187
-0.32015
-0.293977
-0.295014
-0.32015
-0.3201
-0.293927
-0.293977
-0.3201
-0.321038
-0.294865
-0.293927
-0.321038
-0.322963
-0.29679
-0.294865
-0.322963
-0.325876
-0.299703
-0.29679
-0.325876
-0.329777
-0.303604
-0.299703
-0.329777
-0.334665
-0.308493
-0.303604
-0.334665
-0.340542
-0.314369
-0.308493
-0.340542
-0.347405
-0.321232
-0.314369
-0.347405
-0.355257
-0.329084
-0.321232
-0.355257
-0.364096
-0.337923
-0.329084
-0.364096
-0.373922
-0.34775
-0.337923
-0.373922
-0.384737
-0.358564
-0.34775
-0.384737
-0.396539
-0.370366
-0.358564
-0.396539
-0.409328
-0.383156
-0.370366
-0.409328
-0.423106
-0.396933
-0.383156
-0.423106
-0.437871
-0.411698
-0.396933
-0.437871
-0.453623
-0.427451
-0.411698
-0.453623
-0.470364
-0.444191
-0.427451
-0.470364
-0.488092
-0.461919
-0.444191
-0.488092
-0.506807
-0.480634
-0.461919
-0.506807
-0.52651
-0.500338
-0.480634
-0.52651
-0.547201
-0.521029
-0.500338
-0.547201
-0.56888
-0.542707
-0.521029
-0.56888
-0.591546
-0.565373
-0.542707
-0.591546
-0.6152
-0.589027
-0.565373
-0.6152
-0.639842
-0.613669
-0.589027
-0.639842
-0.665471
-0.639298
-0.613669
-0.665471
-0.692088
-0.665915
-0.639298
-0.692088
-0.719692
-0.693519
-0.665915
-0.719692
-0.748284
-0.722111
-0.693519
-0.748284
-0.777864
-0.751691
-0.722111
-0.777864
-0.808431
-0.782259
-0.751691
-0.808431
-0.839987
-0.813814
-0.782259
-0.839987
-0.872529
-0.846356
-0.813814
-0.872529
-0.90606
-0.879887
-0.846356
-0.90606
-0.940578
-0.914405
-0.879887
-0.940578
-0.976083
-0.949911
-0.914405
-0.976083
-1.01258
-0.986404
-0.949911
-1.01258
-1.05006
-1.02389
-0.986404
-1.05006
-1.08853
-1.06235
-1.02389
-1.08853
-1.12798
-1.10181
-1.06235
-1.12798
-1.16843
-1.14225
-1.10181
-1.16843
-1.20986
-1.18369
-1.14225
-1.20986
-1.25228
-1.2261
-1.18369
-1.25228
-1.29568
-1.26951
-1.2261
-1.29568
-1.34008
-1.31391
-1.26951
-1.34008
-1.38546
-1.35929
-1.31391
-1.38546
-1.43183
-1.40566
-1.35929
-1.43183
-1.47919
-1.45302
-1.40566
-1.47919
-1.52753
-1.50136
-1.45302
-1.52753
-1.57687
-1.55069
-1.50136
-1.57687
-1.62719
-1.60101
-1.55069
-1.62719
-1.6785
-1.65232
-1.60101
-1.6785
-1.73079
-1.70462
-1.65232
-1.73079
-1.78408
-1.7579
-1.70462
-1.78408
-1.83835
-1.81217
-1.7579
-1.83835
-1.89361
-1.86743
-1.81217
-1.89361
-1.94985
-1.92368
-1.86743
-1.94985
-2.00709
-1.98091
-1.92368
-2.00709
-2.06531
-2.03913
-1.98091
-2.06531
-2.12452
-2.09834
-2.03913
-2.12452
-2.18471
-2.15854
-2.09834
-2.18471
-2.2459
-2.21973
-2.15854
-2.2459
-2.30807
-2.2819
-2.21973
-2.30807
-2.37123
-2.34506
-2.2819
-2.37123
-2.43538
-2.40921
-2.34506
-2.43538
-2.50051
-2.47434
-2.40921
-2.50051
-2.56664
-2.54046
-2.47434
-2.56664
-2.63375
-2.60758
-2.54046
-2.63375
-2.70185
-2.67567
-2.60758
-2.70185
-2.77093
-2.74476
-2.67567
-2.77093
-2.84101
-2.81483
-2.74476
-2.84101
-2.91207
-2.88589
-2.81483
-2.91207
-2.98412
-2.95794
-2.88589
-2.98412
-3.05715
-3.03098
-2.95794
-3.05715
-3.13118
-3.105
-3.03098
-3.13118
-3.20619
-3.18002
-3.105
-3.20619
-3.28219
-3.25602
-3.18002
-3.28219
-3.35918
-3.333
-3.25602
-3.35918
-3.43715
-3.41098
-3.333
-3.43715
-3.51611
-3.48994
-3.41098
-3.51611
-3.59606
-3.56989
-3.48994
-3.59606
-3.677
-3.65083
-3.56989
-3.677
-3.75893
-3.73275
-3.65083
-3.75893
-3.84184
-3.81567
-3.73275
-3.84184
-3.92574
-3.89957
-3.81567
-3.92574
-4.01063
-3.98446
-3.89957
-4.01063
-4.0965
-4.07033
-3.98446
-4.0965
-4.18337
-4.1572
-4.07033
-4.18337
-4.27122
-4.24505
-4.1572
-4.27122
-4.36006
-4.33389
-4.24505
-4.36006
-4.44989
-4.42371
-4.33389
-4.44989
-4.5407
-4.51453
-4.42371
-4.5407
-4.6325
-4.60633
-4.51453
-4.6325
-4.72529
-4.69912
-4.60633
-4.72529
-4.81907
-4.7929
-4.69912
-4.81907
-4.91383
-4.88766
-4.7929
-4.91383
-5.00959
-4.98341
-4.88766
-5.00959
-5.10633
-5.08015
-4.98341
-5.10633
-5.20405
-5.17788
-5.08015
-5.20405
-5.30277
-5.2766
-5.17788
-5.30277
-5.40247
-5.3763
-5.2766
-0.849695
-0.817053
-0.791868
-0.82451
-0.817053
-0.785398
-0.760213
-0.791868
-0.785398
-0.754731
-0.729546
-0.760213
-0.754731
-0.725052
-0.699866
-0.729546
-0.725052
-0.69636
-0.671175
-0.699866
-0.69636
-0.668656
-0.643471
-0.671175
-0.668656
-0.641939
-0.616754
-0.643471
-0.641939
-0.61621
-0.591025
-0.616754
-0.61621
-0.591469
-0.566284
-0.591025
-0.591469
-0.567716
-0.54253
-0.566284
-0.567716
-0.54495
-0.519765
-0.54253
-0.54495
-0.523172
-0.497986
-0.519765
-0.523172
-0.502381
-0.477196
-0.497986
-0.502381
-0.482578
-0.457393
-0.477196
-0.482578
-0.463763
-0.438578
-0.457393
-0.463763
-0.445935
-0.42075
-0.438578
-0.445935
-0.429095
-0.40391
-0.42075
-0.429095
-0.413243
-0.388058
-0.40391
-0.413243
-0.398378
-0.373193
-0.388058
-0.398378
-0.384501
-0.359316
-0.373193
-0.384501
-0.371612
-0.346427
-0.359316
-0.371612
-0.35971
-0.334525
-0.346427
-0.35971
-0.348796
-0.323611
-0.334525
-0.348796
-0.33887
-0.313685
-0.323611
-0.33887
-0.329931
-0.304746
-0.313685
-0.329931
-0.32198
-0.296795
-0.304746
-0.32198
-0.315017
-0.289831
-0.296795
-0.315017
-0.309041
-0.283856
-0.289831
-0.309041
-0.304053
-0.278867
-0.283856
-0.304053
-0.300052
-0.274867
-0.278867
-0.300052
-0.297039
-0.271854
-0.274867
-0.297039
-0.295014
-0.269829
-0.271854
-0.295014
-0.293977
-0.268792
-0.269829
-0.293977
-0.293927
-0.268742
-0.268792
-0.293927
-0.294865
-0.26968
-0.268742
-0.294865
-0.29679
-0.271605
-0.26968
-0.29679
-0.299703
-0.274518
-0.271605
-0.299703
-0.303604
-0.278419
-0.274518
-0.303604
-0.308493
-0.283307
-0.278419
-0.308493
-0.314369
-0.289183
-0.283307
-0.314369
-0.321232
-0.296047
-0.289183
-0.321232
-0.329084
-0.303899
-0.296047
-0.329084
-0.337923
-0.312738
-0.303899
-0.337923
-0.34775
-0.322564
-0.312738
-0.34775
-0.358564
-0.333379
-0.322564
-0.358564
-0.370366
-0.345181
-0.333379
-0.370366
-0.383156
-0.35797
-0.345181
-0.383156
-0.396933
-0.371748
-0.35797
-0.396933
-0.411698
-0.386513
-0.371748
-0.411698
-0.427451
-0.402265
-0.386513
-0.427451
-0.444191
-0.419006
-0.402265
-0.444191
-0.461919
-0.436734
-0.419006
-0.461919
-0.480634
-0.455449
-0.436734
-0.480634
-0.500338
-0.475152
-0.455449
-0.500338
-0.521029
-0.495843
-0.475152
-0.521029
-0.542707
-0.517522
-0.495843
-0.542707
-0.565373
-0.540188
-0.517522
-0.565373
-0.589027
-0.563842
-0.540188
-0.589027
-0.613669
-0.588484
-0.563842
-0.613669
-0.639298
-0.614113
-0.588484
-0.639298
-0.665915
-0.64073
-0.614113
-0.665915
-0.693519
-0.668334
-0.64073
-0.693519
-0.722111
-0.696926
-0.668334
-0.722111
-0.751691
-0.726506
-0.696926
-0.751691
-0.782259
-0.757073
-0.726506
-0.782259
-0.813814
-0.788628
-0.757073
-0.813814
-0.846356
-0.821171
-0.788628
-0.846356
-0.879887
-0.854702
-0.821171
-0.879887
-0.914405
-0.88922
-0.854702
-0.914405
-0.949911
-0.924725
-0.88922
-0.949911
-0.986404
-0.961219
-0.924725
-0.986404
-1.02389
-0.9987
-0.961219
-1.02389
-1.06235
-1.03717
-0.9987
-1.06235
-1.10181
-1.07662
-1.03717
-1.10181
-1.14225
-1.11707
-1.07662
-1.14225
-1.18369
-1.1585
-1.11707
-1.18369
-1.2261
-1.20092
-1.1585
-1.2261
-1.26951
-1.24433
-1.20092
-1.26951
-1.31391
-1.28872
-1.24433
-1.31391
-1.35929
-1.3341
-1.28872
-1.35929
-1.40566
-1.38047
-1.3341
-1.40566
-1.45302
-1.42783
-1.38047
-1.45302
-1.50136
-1.47618
-1.42783
-1.50136
-1.55069
-1.52551
-1.47618
-1.55069
-1.60101
-1.57583
-1.52551
-1.60101
-1.65232
-1.62714
-1.57583
-1.65232
-1.70462
-1.67943
-1.62714
-1.70462
-1.7579
-1.73272
-1.67943
-1.7579
-1.81217
-1.78699
-1.73272
-1.81217
-1.86743
-1.84225
-1.78699
-1.86743
-1.92368
-1.89849
-1.84225
-1.92368
-1.98091
-1.95573
-1.89849
-1.98091
-2.03913
-2.01395
-1.95573
-2.03913
-2.09834
-2.07316
-2.01395
-2.09834
-2.15854
-2.13336
-2.07316
-2.15854
-2.21973
-2.19454
-2.13336
-2.21973
-2.2819
-2.25671
-2.19454
-2.2819
-2.34506
-2.31987
-2.25671
-2.34506
-2.40921
-2.38402
-2.31987
-2.40921
-2.47434
-2.44916
-2.38402
-2.47434
-2.54046
-2.51528
-2.44916
-2.54046
-2.60758
-2.58239
-2.51528
-2.60758
-2.67567
-2.65049
-2.58239
-2.67567
-2.74476
-2.71957
-2.65049
-2.74476
-2.81483
-2.78965
-2.71957
-2.81483
-2.88589
-2.86071
-2.78965
-2.88589
-2.95794
-2.93276
-2.86071
-2.95794
-3.03098
-3.00579
-2.93276
-3.03098
-3.105
-3.07982
-3.00579
-3.105
-3.18002
-3.15483
-3.07982
-3.18002
-3.25602
-3.23083
-3.15483
-3.25602
-3.333
-3.30782
-3.23083
-3.333
-3.41098
-3.38579
-3.30782
-3.41098
-3.48994
-3.46475
-3.38579
-3.48994
-3.56989
-3.54471
-3.46475
-3.56989
-3.65083
-3.62564
-3.54471
-3.65083
-3.73275
-3.70757
-3.62564
-3.73275
-3.81567
-3.79048
-3.70757
-3.81567
-3.89957
-3.87438
-3.79048
-3.89957
-3.98446
-3.95927
-3.87438
-3.98446
-4.07033
-4.04515
-3.95927
-4.07033
-4.1572
-4.13201
-4.04515
-4.1572
-4.24505
-4.21986
-4.13201
-4.24505
-4.33389
-4.3087
-4.21986
-4.33389
-4.42371
-4.39853
-4.3087
-4.42371
-4.51453
-4.48934
-4.39853
-4.51453
-4.60633
-4.58114
-4.48934
-4.60633
-4.69912
-4.67393
-4.58114
-4.69912
-4.7929
-4.76771
-4.67393
-4.7929
-4.88766
-4.86248
-4.76771
-4.88766
-4.98341
-4.95823
-4.86248
-4.98341
-5.08015
-5.05497
-4.95823
-5.08015
-5.17788
-5.1527
-5.05497
-5.17788
-5.2766
-5.25141
-5.1527
-5.2766
-5.3763
-5.35112
-5.25141
-0.82451
-0.791868
-0.76767
-0.800313
-0.791868
-0.760213
-0.736016
-0.76767
-0.760213
-0.729546
-0.705348
-0.736016
-0.729546
-0.699866
-0.675669
-0.705348
-0.699866
-0.671175
-0.646977
-0.675669
-0.671175
-0.643471
-0.619273
-0.646977
-0.643471
-0.616754
-0.592556
-0.619273
-0.616754
-0.591025
-0.566828
-0.592556
-0.591025
-0.566284
-0.542086
-0.566828
-0.566284
-0.54253
-0.518333
-0.542086
-0.54253
-0.519765
-0.495567
-0.518333
-0.519765
-0.497986
-0.473789
-0.495567
-0.497986
-0.477196
-0.452998
-0.473789
-0.477196
-0.457393
-0.433195
-0.452998
-0.457393
-0.438578
-0.41438
-0.433195
-0.438578
-0.42075
-0.396552
-0.41438
-0.42075
-0.40391
-0.379712
-0.396552
-0.40391
-0.388058
-0.36386
-0.379712
-0.388058
-0.373193
-0.348995
-0.36386
-0.373193
-0.359316
-0.335118
-0.348995
-0.359316
-0.346427
-0.322229
-0.335118
-0.346427
-0.334525
-0.310327
-0.322229
-0.334525
-0.323611
-0.299413
-0.310327
-0.323611
-0.313685
-0.289487
-0.299413
-0.313685
-0.304746
-0.280548
-0.289487
-0.304746
-0.296795
-0.272597
-0.280548
-0.296795
-0.289831
-0.265634
-0.272597
-0.289831
-0.283856
-0.259658
-0.265634
-0.283856
-0.278867
-0.25467
-0.259658
-0.278867
-0.274867
-0.25067
-0.25467
-0.274867
-0.271854
-0.247657
-0.25067
-0.271854
-0.269829
-0.245632
-0.247657
-0.269829
-0.268792
-0.244594
-0.245632
-0.268792
-0.268742
-0.244544
-0.244594
-0.268742
-0.26968
-0.245482
-0.244544
-0.26968
-0.271605
-0.247408
-0.245482
-0.271605
-0.274518
-0.250321
-0.247408
-0.274518
-0.278419
-0.254221
-0.250321
-0.278419
-0.283307
-0.25911
-0.254221
-0.283307
-0.289183
-0.264986
-0.25911
-0.289183
-0.296047
-0.27185
-0.264986
-0.296047
-0.303899
-0.279701
-0.27185
-0.303899
-0.312738
-0.28854
-0.279701
-0.312738
-0.322564
-0.298367
-0.28854
-0.322564
-0.333379
-0.309181
-0.298367
-0.333379
-0.345181
-0.320983
-0.309181
-0.345181
-0.35797
-0.333773
-0.320983
-0.35797
-0.371748
-0.34755
-0.333773
-0.371748
-0.386513
-0.362315
-0.34755
-0.386513
-0.402265
-0.378068
-0.362315
-0.402265
-0.419006
-0.394808
-0.378068
-0.419006
-0.436734
-0.412536
-0.394808
-0.436734
-0.455449
-0.431252
-0.412536
-0.455449
-0.475152
-0.450955
-0.431252
-0.475152
-0.495843
-0.471646
-0.450955
-0.495843
-0.517522
-0.493324
-0.471646
-0.517522
-0.540188
-0.515991
-0.493324
-0.540188
-0.563842
-0.539644
-0.515991
-0.563842
-0.588484
-0.564286
-0.539644
-0.588484
-0.614113
-0.589915
-0.564286
-0.614113
-0.64073
-0.616532
-0.589915
-0.64073
-0.668334
-0.644136
-0.616532
-0.668334
-0.696926
-0.672729
-0.644136
-0.696926
-0.726506
-0.702308
-0.672729
-0.726506
-0.757073
-0.732876
-0.702308
-0.757073
-0.788628
-0.764431
-0.732876
-0.788628
-0.821171
-0.796974
-0.764431
-0.821171
-0.854702
-0.830504
-0.796974
-0.854702
-0.88922
-0.865022
-0.830504
-0.88922
-0.924725
-0.900528
-0.865022
-0.924725
-0.961219
-0.937021
-0.900528
-0.961219
-0.9987
-0.974502
-0.937021
-0.9987
-1.03717
-1.01297
-0.974502
-1.03717
-1.07662
-1.05243
-1.01297
-1.07662
-1.11707
-1.09287
-1.05243
-1.11707
-1.1585
-1.1343
-1.09287
-1.1585
-1.20092
-1.17672
-1.1343
-1.20092
-1.24433
-1.22013
-1.17672
-1.24433
-1.28872
-1.26452
-1.22013
-1.28872
-1.3341
-1.30991
-1.26452
-1.3341
-1.38047
-1.35628
-1.30991
-1.38047
-1.42783
-1.40363
-1.35628
-1.42783
-1.47618
-1.45198
-1.40363
-1.47618
-1.52551
-1.50131
-1.45198
-1.52551
-1.57583
-1.55163
-1.50131
-1.57583
-1.62714
-1.60294
-1.55163
-1.62714
-1.67943
-1.65524
-1.60294
-1.67943
-1.73272
-1.70852
-1.65524
-1.73272
-1.78699
-1.76279
-1.70852
-1.78699
-1.84225
-1.81805
-1.76279
-1.84225
-1.89849
-1.8743
-1.81805
-1.89849
-1.95573
-1.93153
-1.8743
-1.95573
-2.01395
-1.98975
-1.93153
-2.01395
-2.07316
-2.04896
-1.98975
-2.07316
-2.13336
-2.10916
-2.04896
-2.13336
-2.19454
-2.17034
-2.10916
-2.19454
-2.25671
-2.23252
-2.17034
-2.25671
-2.31987
-2.29568
-2.23252
-2.31987
-2.38402
-2.35982
-2.29568
-2.38402
-2.44916
-2.42496
-2.35982
-2.44916
-2.51528
-2.49108
-2.42496
-2.51528
-2.58239
-2.55819
-2.49108
-2.58239
-2.65049
-2.62629
-2.55819
-2.65049
-2.71957
-2.69538
-2.62629
-2.71957
-2.78965
-2.76545
-2.69538
-2.78965
-2.86071
-2.83651
-2.76545
-2.86071
-2.93276
-2.90856
-2.83651
-2.93276
-3.00579
-2.9816
-2.90856
-3.00579
-3.07982
-3.05562
-2.9816
-3.07982
-3.15483
-3.13063
-3.05562
-3.15483
-3.23083
-3.20663
-3.13063
-3.23083
-3.30782
-3.28362
-3.20663
-3.30782
-3.38579
-3.36159
-3.28362
-3.38579
-3.46475
-3.44056
-3.36159
-3.46475
-3.54471
-3.52051
-3.44056
-3.54471
-3.62564
-3.60145
-3.52051
-3.62564
-3.70757
-3.68337
-3.60145
-3.70757
-3.79048
-3.76628
-3.68337
-3.79048
-3.87438
-3.85018
-3.76628
-3.87438
-3.95927
-3.93507
-3.85018
-3.95927
-4.04515
-4.02095
-3.93507
-4.04515
-4.13201
-4.10781
-4.02095
-4.13201
-4.21986
-4.19566
-4.10781
-4.21986
-4.3087
-4.2845
-4.19566
-4.3087
-4.39853
-4.37433
-4.2845
-4.39853
-4.48934
-4.46514
-4.37433
-4.48934
-4.58114
-4.55695
-4.46514
-4.58114
-4.67393
-4.64974
-4.55695
-4.67393
-4.76771
-4.74351
-4.64974
-4.76771
-4.86248
-4.83828
-4.74351
-4.86248
-4.95823
-4.93403
-4.83828
-4.95823
-5.05497
-5.03077
-4.93403
-5.05497
-5.1527
-5.1285
-5.03077
-5.1527
-5.25141
-5.22721
-5.1285
-5.25141
-5.35112
-5.32692
-5.22721
-0.800313
-0.76767
-0.74446
-0.777103
-0.76767
-0.736016
-0.712806
-0.74446
-0.736016
-0.705348
-0.682139
-0.712806
-0.705348
-0.675669
-0.652459
-0.682139
-0.675669
-0.646977
-0.623767
-0.652459
-0.646977
-0.619273
-0.596063
-0.623767
-0.619273
-0.592556
-0.569347
-0.596063
-0.592556
-0.566828
-0.543618
-0.569347
-0.566828
-0.542086
-0.518877
-0.543618
-0.542086
-0.518333
-0.495123
-0.518877
-0.518333
-0.495567
-0.472357
-0.495123
-0.495567
-0.473789
-0.450579
-0.472357
-0.473789
-0.452998
-0.429788
-0.450579
-0.452998
-0.433195
-0.409985
-0.429788
-0.433195
-0.41438
-0.39117
-0.409985
-0.41438
-0.396552
-0.373343
-0.39117
-0.396552
-0.379712
-0.356503
-0.373343
-0.379712
-0.36386
-0.34065
-0.356503
-0.36386
-0.348995
-0.325786
-0.34065
-0.348995
-0.335118
-0.311909
-0.325786
-0.335118
-0.322229
-0.299019
-0.311909
-0.322229
-0.310327
-0.287118
-0.299019
-0.310327
-0.299413
-0.276204
-0.287118
-0.299413
-0.289487
-0.266277
-0.276204
-0.289487
-0.280548
-0.257338
-0.266277
-0.280548
-0.272597
-0.249387
-0.257338
-0.272597
-0.265634
-0.242424
-0.249387
-0.265634
-0.259658
-0.236448
-0.242424
-0.259658
-0.25467
-0.23146
-0.236448
-0.25467
-0.25067
-0.22746
-0.23146
-0.25067
-0.247657
-0.224447
-0.22746
-0.247657
-0.245632
-0.222422
-0.224447
-0.245632
-0.244594
-0.221384
-0.222422
-0.244594
-0.244544
-0.221334
-0.221384
-0.244544
-0.245482
-0.222272
-0.221334
-0.245482
-0.247408
-0.224198
-0.222272
-0.247408
-0.250321
-0.227111
-0.224198
-0.250321
-0.254221
-0.231012
-0.227111
-0.254221
-0.25911
-0.2359
-0.231012
-0.25911
-0.264986
-0.241776
-0.2359
-0.264986
-0.27185
-0.24864
-0.241776
-0.27185
-0.279701
-0.256491
-0.24864
-0.279701
-0.28854
-0.26533
-0.256491
-0.28854
-0.298367
-0.275157
-0.26533
-0.298367
-0.309181
-0.285971
-0.275157
-0.309181
-0.320983
-0.297773
-0.285971
-0.320983
-0.333773
-0.310563
-0.297773
-0.333773
-0.34755
-0.32434
-0.310563
-0.34755
-0.362315
-0.339105
-0.32434
-0.362315
-0.378068
-0.354858
-0.339105
-0.378068
-0.394808
-0.371598
-0.354858
-0.394808
-0.412536
-0.389326
-0.371598
-0.412536
-0.431252
-0.408042
-0.389326
-0.431252
-0.450955
-0.427745
-0.408042
-0.450955
-0.471646
-0.448436
-0.427745
-0.471646
-0.493324
-0.470115
-0.448436
-0.493324
-0.515991
-0.492781
-0.470115
-0.515991
-0.539644
-0.516435
-0.492781
-0.539644
-0.564286
-0.541076
-0.516435
-0.564286
-0.589915
-0.566705
-0.541076
-0.589915
-0.616532
-0.593322
-0.566705
-0.616532
-0.644136
-0.620927
-0.593322
-0.644136
-0.672729
-0.649519
-0.620927
-0.672729
-0.702308
-0.679099
-0.649519
-0.702308
-0.732876
-0.709666
-0.679099
-0.732876
-0.764431
-0.741221
-0.709666
-0.764431
-0.796974
-0.773764
-0.741221
-0.796974
-0.830504
-0.807294
-0.773764
-0.830504
-0.865022
-0.841812
-0.807294
-0.865022
-0.900528
-0.877318
-0.841812
-0.900528
-0.937021
-0.913811
-0.877318
-0.937021
-0.974502
-0.951292
-0.913811
-0.974502
-1.01297
-0.989761
-0.951292
-1.01297
-1.05243
-1.02922
-0.989761
-1.05243
-1.09287
-1.06966
-1.02922
-1.09287
-1.1343
-1.11109
-1.06966
-1.1343
-1.17672
-1.15351
-1.11109
-1.17672
-1.22013
-1.19692
-1.15351
-1.22013
-1.26452
-1.24131
-1.19692
-1.26452
-1.30991
-1.2867
-1.24131
-1.30991
-1.35628
-1.33307
-1.2867
-1.35628
-1.40363
-1.38042
-1.33307
-1.40363
-1.45198
-1.42877
-1.38042
-1.45198
-1.50131
-1.4781
-1.42877
-1.50131
-1.55163
-1.52842
-1.4781
-1.55163
-1.60294
-1.57973
-1.52842
-1.60294
-1.65524
-1.63203
-1.57973
-1.65524
-1.70852
-1.68531
-1.63203
-1.70852
-1.76279
-1.73958
-1.68531
-1.76279
-1.81805
-1.79484
-1.73958
-1.81805
-1.8743
-1.85109
-1.79484
-1.8743
-1.93153
-1.90832
-1.85109
-1.93153
-1.98975
-1.96654
-1.90832
-1.98975
-2.04896
-2.02575
-1.96654
-2.04896
-2.10916
-2.08595
-2.02575
-2.10916
-2.17034
-2.14713
-2.08595
-2.17034
-2.23252
-2.20931
-2.14713
-2.23252
-2.29568
-2.27247
-2.20931
-2.29568
-2.35982
-2.33661
-2.27247
-2.35982
-2.42496
-2.40175
-2.33661
-2.42496
-2.49108
-2.46787
-2.40175
-2.49108
-2.55819
-2.53498
-2.46787
-2.55819
-2.62629
-2.60308
-2.53498
-2.62629
-2.69538
-2.67217
-2.60308
-2.69538
-2.76545
-2.74224
-2.67217
-2.76545
-2.83651
-2.8133
-2.74224
-2.83651
-2.90856
-2.88535
-2.8133
-2.90856
-2.9816
-2.95839
-2.88535
-2.9816
-3.05562
-3.03241
-2.95839
-3.05562
-3.13063
-3.10742
-3.03241
-3.13063
-3.20663
-3.18342
-3.10742
-3.20663
-3.28362
-3.26041
-3.18342
-3.28362
-3.36159
-3.33838
-3.26041
-3.36159
-3.44056
-3.41735
-3.33838
-3.44056
-3.52051
-3.4973
-3.41735
-3.52051
-3.60145
-3.57824
-3.4973
-3.60145
-3.68337
-3.66016
-3.57824
-3.68337
-3.76628
-3.74307
-3.66016
-3.76628
-3.85018
-3.82697
-3.74307
-3.85018
-3.93507
-3.91186
-3.82697
-3.93507
-4.02095
-3.99774
-3.91186
-4.02095
-4.10781
-4.0846
-3.99774
-4.10781
-4.19566
-4.17245
-4.0846
-4.19566