# vtk DataFile Version 1.0
unstructured Grid
ASCII
DATASET UNSTRUCTURED_GRID
POINTS 23440 float 
0 0	 0.0
0.0222222 0	 0.0
0.0222222 0.0222222	 0.0
0 0.0222222	 0.0
0.0222222 0	 0.0
0.0444444 0	 0.0
0.0444444 0.0222222	 0.0
0.0222222 0.0222222	 0.0
0.0444444 0	 0.0
0.0666667 0	 0.0
0.0666667 0.0222222	 0.0
0.0444444 0.0222222	 0.0
0.0666667 0	 0.0
0.0888889 0	 0.0
0.0888889 0.0222222	 0.0
0.0666667 0.0222222	 0.0
0.0888889 0	 0.0
0.111111 0	 0.0
0.111111 0.0222222	 0.0
0.0888889 0.0222222	 0.0
0.111111 0	 0.0
0.133333 0	 0.0
0.133333 0.0222222	 0.0
0.111111 0.0222222	 0.0
0.133333 0	 0.0
0.155556 0	 0.0
0.155556 0.0222222	 0.0
0.133333 0.0222222	 0.0
0.155556 0	 0.0
0.177778 0	 0.0
0.177778 0.0222222	 0.0
0.155556 0.0222222	 0.0
0.177778 0	 0.0
0.2 0	 0.0
0.2 0.0222222	 0.0
0.177778 0.0222222	 0.0
0.2 0	 0.0
0.222222 0	 0.0
0.222222 0.0222222	 0.0
0.2 0.0222222	 0.0
0.222222 0	 0.0
0.244444 0	 0.0
0.244444 0.0222222	 0.0
0.222222 0.0222222	 0.0
0.244444 0	 0.0
0.266667 0	 0.0
0.266667 0.0222222	 0.0
0.244444 0.0222222	 0.0
0.266667 0	 0.0
0.288889 0	 0.0
0.288889 0.0222222	 0.0
0.266667 0.0222222	 0.0
0.288889 0	 0.0
0.311111 0	 0.0
0.311111 0.0222222	 0.0
0.288889 0.0222222	 0.0
0.311111 0	 0.0
0.333333 0	 0.0
0.333333 0.0222222	 0.0
0.311111 0.0222222	 0.0
0.333333 0	 0.0
0.355556 0	 0.0
0.355556 0.0222222	 0.0
0.333333 0.0222222	 0.0
0.355556 0	 0.0
0.377778 0	 0.0
0.377778 0.0222222	 0.0
0.355556 0.0222222	 0.0
0.377778 0	 0.0
0.4 0	 0.0
0.4 0.0222222	 0.0
0.377778 0.0222222	 0.0
0.4 0	 0.0
0.422222 0	 0.0
0.422222 0.0222222	 0.0
0.4 0.0222222	 0.0
0.422222 0	 0.0
0.444444 0	 0.0
0.444444 0.0222222	 0.0
0.422222 0.0222222	 0.0
0.444444 0	 0.0
0.466667 0	 0.0
0.466667 0.0222222	 0.0
0.444444 0.0222222	 0.0
0.466667 0	 0.0
0.488889 0	 0.0
0.488889 0.0222222	 0.0
0.466667 0.0222222	 0.0
0.488889 0	 0.0
0.511111 0	 0.0
0.511111 0.0222222	 0.0
0.488889 0.0222222	 0.0
0.511111 0	 0.0
0.533333 0	 0.0
0.533333 0.0222222	 0.0
0.511111 0.0222222	 0.0
0.533333 0	 0.0
0.555556 0	 0.0
0.555556 0.0222222	 0.0
0.533333 0.0222222	 0.0
0.555556 0	 0.0
0.577778 0	 0.0
0.577778 0.0222222	 0.0
0.555556 0.0222222	 0.0
0.577778 0	 0.0
0.6 0	 0.0
0.6 0.0222222	 0.0
0.577778 0.0222222	 0.0
0.6 0	 0.0
0.622222 0	 0.0
0.622222 0.0222222	 0.0
0.6 0.0222222	 0.0
0.622222 0	 0.0
0.644444 0	 0.0
0.644444 0.0222222	 0.0
0.622222 0.0222222	 0.0
0.644444 0	 0.0
0.666667 0	 0.0
0.666667 0.0222222	 0.0
0.644444 0.0222222	 0.0
0.666667 0	 0.0
0.688889 0	 0.0
0.688889 0.0222222	 0.0
0.666667 0.0222222	 0.0
0.688889 0	 0.0
0.711111 0	 0.0
0.711111 0.0222222	 0.0
0.688889 0.0222222	 0.0
0.711111 0	 0.0
0.733333 0	 0.0
0.733333 0.0222222	 0.0
0.711111 0.0222222	 0.0
0.733333 0	 0.0
0.755556 0	 0.0
0.755556 0.0222222	 0.0
0.733333 0.0222222	 0.0
0.755556 0	 0.0
0.777778 0	 0.0
0.777778 0.0222222	 0.0
0.755556 0.0222222	 0.0
0.777778 0	 0.0
0.8 0	 0.0
0.8 0.0222222	 0.0
0.777778 0.0222222	 0.0
0.8 0	 0.0
0.822222 0	 0.0
0.822222 0.0222222	 0.0
0.8 0.0222222	 0.0
0.822222 0	 0.0
0.844444 0	 0.0
0.844444 0.0222222	 0.0
0.822222 0.0222222	 0.0
0.844444 0	 0.0
0.866667 0	 0.0
0.866667 0.0222222	 0.0
0.844444 0.0222222	 0.0
0.866667 0	 0.0
0.888889 0	 0.0
0.888889 0.0222222	 0.0
0.866667 0.0222222	 0.0
0.888889 0	 0.0
0.911111 0	 0.0
0.911111 0.0222222	 0.0
0.888889 0.0222222	 0.0
0.911111 0	 0.0
0.933333 0	 0.0
0.933333 0.0222222	 0.0
0.911111 0.0222222	 0.0
0.933333 0	 0.0
0.955556 0	 0.0
0.955556 0.0222222	 0.0
0.933333 0.0222222	 0.0
0.955556 0	 0.0
0.977778 0	 0.0
0.977778 0.0222222	 0.0
0.955556 0.0222222	 0.0
0.977778 0	 0.0
1 0	 0.0
1 0.0222222	 0.0
0.977778 0.0222222	 0.0
1 0	 0.0
1.02222 0	 0.0
1.02222 0.0222222	 0.0
1 0.0222222	 0.0
1.02222 0	 0.0
1.04444 0	 0.0
1.04444 0.0222222	 0.0
1.02222 0.0222222	 0.0
1.04444 0	 0.0
1.06667 0	 0.0
1.06667 0.0222222	 0.0
1.04444 0.0222222	 0.0
1.06667 0	 0.0
1.08889 0	 0.0
1.08889 0.0222222	 0.0
1.06667 0.0222222	 0.0
1.08889 0	 0.0
1.11111 0	 0.0
1.11111 0.0222222	 0.0
1.08889 0.0222222	 0.0
1.11111 0	 0.0
1.13333 0	 0.0
1.13333 0.0222222	 0.0
1.11111 0.0222222	 0.0
1.13333 0	 0.0
1.15556 0	 0.0
1.15556 0.0222222	 0.0
1.13333 0.0222222	 0.0
1.15556 0	 0.0
1.17778 0	 0.0
1.17778 0.0222222	 0.0
1.15556 0.0222222	 0.0
1.17778 0	 0.0
1.2 0	 0.0
1.2 0.0222222	 0.0
1.17778 0.0222222	 0.0
1.2 0	 0.0
1.22222 0	 0.0
1.22222 0.0222222	 0.0
1.2 0.0222222	 0.0
1.22222 0	 0.0
1.24444 0	 0.0
1.24444 0.0222222	 0.0
1.22222 0.0222222	 0.0
1.24444 0	 0.0
1.26667 0	 0.0
1.26667 0.0222222	 0.0
1.24444 0.0222222	 0.0
1.26667 0	 0.0
1.28889 0	 0.0
1.28889 0.0222222	 0.0
1.26667 0.0222222	 0.0
1.28889 0	 0.0
1.31111 0	 0.0
1.31111 0.0222222	 0.0
1.28889 0.0222222	 0.0
1.31111 0	 0.0
1.33333 0	 0.0
1.33333 0.0222222	 0.0
1.31111 0.0222222	 0.0
1.33333 0	 0.0
1.35556 0	 0.0
1.35556 0.0222222	 0.0
1.33333 0.0222222	 0.0
1.35556 0	 0.0
1.37778 0	 0.0
1.37778 0.0222222	 0.0
1.35556 0.0222222	 0.0
1.37778 0	 0.0
1.4 0	 0.0
1.4 0.0222222	 0.0
1.37778 0.0222222	 0.0
1.4 0	 0.0
1.42222 0	 0.0
1.42222 0.0222222	 0.0
1.4 0.0222222	 0.0
1.42222 0	 0.0
1.44444 0	 0.0
1.44444 0.0222222	 0.0
1.42222 0.0222222	 0.0
1.44444 0	 0.0
1.46667 0	 0.0
1.46667 0.0222222	 0.0
1.44444 0.0222222	 0.0
1.46667 0	 0.0
1.48889 0	 0.0
1.48889 0.0222222	 0.0
1.46667 0.0222222	 0.0
1.48889 0	 0.0
1.51111 0	 0.0
1.51111 0.0222222	 0.0
1.48889 0.0222222	 0.0
1.51111 0	 0.0
1.53333 0	 0.0
1.53333 0.0222222	 0.0
1.51111 0.0222222	 0.0
1.53333 0	 0.0
1.55556 0	 0.0
1.55556 0.0222222	 0.0
1.53333 0.0222222	 0.0
1.55556 0	 0.0
1.57778 0	 0.0
1.57778 0.0222222	 0.0
1.55556 0.0222222	 0.0
1.57778 0	 0.0
1.6 0	 0.0
1.6 0.0222222	 0.0
1.57778 0.0222222	 0.0
1.6 0	 0.0
1.62222 0	 0.0
1.62222 0.0222222	 0.0
1.6 0.0222222	 0.0
1.62222 0	 0.0
1.64444 0	 0.0
1.64444 0.0222222	 0.0
1.62222 0.0222222	 0.0
1.64444 0	 0.0
1.66667 0	 0.0
1.66667 0.0222222	 0.0
1.64444 0.0222222	 0.0
1.66667 0	 0.0
1.68889 0	 0.0
1.68889 0.0222222	 0.0
1.66667 0.0222222	 0.0
1.68889 0	 0.0
1.71111 0	 0.0
1.71111 0.0222222	 0.0
1.68889 0.0222222	 0.0
1.71111 0	 0.0
1.73333 0	 0.0
1.73333 0.0222222	 0.0
1.71111 0.0222222	 0.0
1.73333 0	 0.0
1.75556 0	 0.0
1.75556 0.0222222	 0.0
1.73333 0.0222222	 0.0
1.75556 0	 0.0
1.77778 0	 0.0
1.77778 0.0222222	 0.0
1.75556 0.0222222	 0.0
1.77778 0	 0.0
1.8 0	 0.0
1.8 0.0222222	 0.0
1.77778 0.0222222	 0.0
1.8 0	 0.0
1.82222 0	 0.0
1.82222 0.0222222	 0.0
1.8 0.0222222	 0.0
1.82222 0	 0.0
1.84444 0	 0.0
1.84444 0.0222222	 0.0
1.82222 0.0222222	 0.0
1.84444 0	 0.0
1.86667 0	 0.0
1.86667 0.0222222	 0.0
1.84444 0.0222222	 0.0
1.86667 0	 0.0
1.88889 0	 0.0
1.88889 0.0222222	 0.0
1.86667 0.0222222	 0.0
1.88889 0	 0.0
1.91111 0	 0.0
1.91111 0.0222222	 0.0
1.88889 0.0222222	 0.0
1.91111 0	 0.0
1.93333 0	 0.0
1.93333 0.0222222	 0.0
1.91111 0.0222222	 0.0
1.93333 0	 0.0
1.95556 0	 0.0
1.95556 0.0222222	 0.0
1.93333 0.0222222	 0.0
1.95556 0	 0.0
1.97778 0	 0.0
1.97778 0.0222222	 0.0
1.95556 0.0222222	 0.0
1.97778 0	 0.0
2 0	 0.0
2 0.0222222	 0.0
1.97778 0.0222222	 0.0
2 0	 0.0
2.02222 0	 0.0
2.02222 0.0222222	 0.0
2 0.0222222	 0.0
2.02222 0	 0.0
2.04444 0	 0.0
2.04444 0.0222222	 0.0
2.02222 0.0222222	 0.0
2.04444 0	 0.0
2.06667 0	 0.0
2.06667 0.0222222	 0.0
2.04444 0.0222222	 0.0
2.06667 0	 0.0
2.08889 0	 0.0
2.08889 0.0222222	 0.0
2.06667 0.0222222	 0.0
2.08889 0	 0.0
2.11111 0	 0.0
2.11111 0.0222222	 0.0
2.08889 0.0222222	 0.0
2.11111 0	 0.0
2.13333 0	 0.0
2.13333 0.0222222	 0.0
2.11111 0.0222222	 0.0
2.13333 0	 0.0
2.15556 0	 0.0
2.15556 0.0222222	 0.0
2.13333 0.0222222	 0.0
2.15556 0	 0.0
2.17778 0	 0.0
2.17778 0.0222222	 0.0
2.15556 0.0222222	 0.0
2.17778 0	 0.0
2.2 0	 0.0
2.2 0.0222222	 0.0
2.17778 0.0222222	 0.0
2.2 0	 0.0
2.22222 0	 0.0
2.22222 0.0222222	 0.0
2.2 0.0222222	 0.0
2.22222 0	 0.0
2.24444 0	 0.0
2.24444 0.0222222	 0.0
2.22222 0.0222222	 0.0
2.24444 0	 0.0
2.26667 0	 0.0
2.26667 0.0222222	 0.0
2.24444 0.0222222	 0.0
2.26667 0	 0.0
2.28889 0	 0.0
2.28889 0.0222222	 0.0
2.26667 0.0222222	 0.0
2.28889 0	 0.0
2.31111 0	 0.0
2.31111 0.0222222	 0.0
2.28889 0.0222222	 0.0
2.31111 0	 0.0
2.33333 0	 0.0
2.33333 0.0222222	 0.0
2.31111 0.0222222	 0.0
2.33333 0	 0.0
2.35556 0	 0.0
2.35556 0.0222222	 0.0
2.33333 0.0222222	 0.0
2.35556 0	 0.0
2.37778 0	 0.0
2.37778 0.0222222	 0.0
2.35556 0.0222222	 0.0
2.37778 0	 0.0
2.4 0	 0.0
2.4 0.0222222	 0.0
2.37778 0.0222222	 0.0
2.4 0	 0.0
2.42222 0	 0.0
2.42222 0.0222222	 0.0
2.4 0.0222222	 0.0
2.42222 0	 0.0
2.44444 0	 0.0
2.44444 0.0222222	 0.0
2.42222 0.0222222	 0.0
2.44444 0	 0.0
2.46667 0	 0.0
2.46667 0.0222222	 0.0
2.44444 0.0222222	 0.0
2.46667 0	 0.0
2.48889 0	 0.0
2.48889 0.0222222	 0.0
2.46667 0.0222222	 0.0
2.48889 0	 0.0
2.51111 0	 0.0
2.51111 0.0222222	 0.0
2.48889 0.0222222	 0.0
2.51111 0	 0.0
2.53333 0	 0.0
2.53333 0.0222222	 0.0
2.51111 0.0222222	 0.0
2.53333 0	 0.0
2.55556 0	 0.0
2.55556 0.0222222	 0.0
2.53333 0.0222222	 0.0
2.55556 0	 0.0
2.57778 0	 0.0
2.57778 0.0222222	 0.0
2.55556 0.0222222	 0.0
2.57778 0	 0.0
2.6 0	 0.0
2.6 0.0222222	 0.0
2.57778 0.0222222	 0.0
2.6 0	 0.0
2.62222 0	 0.0
2.62222 0.0222222	 0.0
2.6 0.0222222	 0.0
2.62222 0	 0.0
2.64444 0	 0.0
2.64444 0.0222222	 0.0
2.62222 0.0222222	 0.0
2.64444 0	 0.0
2.66667 0	 0.0
2.66667 0.0222222	 0.0
2.64444 0.0222222	 0.0
2.66667 0	 0.0
2.68889 0	 0.0
2.68889 0.0222222	 0.0
2.66667 0.0222222	 0.0
2.68889 0	 0.0
2.71111 0	 0.0
2.71111 0.0222222	 0.0
2.68889 0.0222222	 0.0
2.71111 0	 0.0
2.73333 0	 0.0
2.73333 0.0222222	 0.0
2.71111 0.0222222	 0.0
2.73333 0	 0.0
2.75556 0	 0.0
2.75556 0.0222222	 0.0
2.73333 0.0222222	 0.0
2.75556 0	 0.0
2.77778 0	 0.0
2.77778 0.0222222	 0.0
2.75556 0.0222222	 0.0
2.77778 0	 0.0
2.8 0	 0.0
2.8 0.0222222	 0.0
2.77778 0.0222222	 0.0
2.8 0	 0.0
2.82222 0	 0.0
2.82222 0.0222222	 0.0
2.8 0.0222222	 0.0
2.82222 0	 0.0
2.84444 0	 0.0
2.84444 0.0222222	 0.0
2.82222 0.0222222	 0.0
2.84444 0	 0.0
2.86667 0	 0.0
2.86667 0.0222222	 0.0
2.84444 0.0222222	 0.0
2.86667 0	 0.0
2.88889 0	 0.0
2.88889 0.0222222	 0.0
2.86667 0.0222222	 0.0
2.88889 0	 0.0
2.91111 0	 0.0
2.91111 0.0222222	 0.0
2.88889 0.0222222	 0.0
2.91111 0	 0.0
[...]
POINT_DATA 23440
SCALARS levelset_first float
LOOKUP_TABLE default
-5.49659
-5.39596
-5.36979
-5.47041
-5.39596
-5.29632
-5.27015
-5.36979
-5.29632
-5.19767
-5.1715
-5.27015
-5.19767
-5.10001
-5.07383
-5.1715
-5.10001
-5.00333
-4.97716
-5.07383
-5.00333
-4.90764
-4.88147
-4.97716
-4.90764
-4.81294
-4.78677
-4.88147
-4.81294
-4.71923
-4.69305
-4.78677
-4.71923
-4.6265
-4.60033
-4.69305
-4.6265
-4.53476
-4.50859
-4.60033
-4.53476
-4.44401
-4.41784
-4.50859
-4.44401
-4.35425
-4.32808
-4.41784
-4.35425
-4.26548
-4.2393
-4.32808
-4.26548
-4.17769
-4.15152
-4.2393
-4.17769
-4.09089
-4.06472
-4.15152
-4.09089
-4.00508
-3.9789
-4.06472
-4.00508
-3.92025
-3.89408
-3.9789
-3.92025
-3.83642
-3.81024
-3.89408
-3.83642
-3.75357
-3.7274
-3.81024
-3.75357
-3.67171
-3.64553
-3.7274
-3.67171
-3.59083
-3.56466
-3.64553
-3.59083
-3.51095
-3.48477
-3.56466
-3.51095
-3.43205
-3.40588
-3.48477
-3.43205
-3.35414
-3.32797
-3.40588
-3.35414
-3.27722
-3.25104
-3.32797
-3.27722
-3.20128
-3.17511
-3.25104
-3.20128
-3.12633
-3.10016
-3.17511
-3.12633
-3.05237
-3.0262
-3.10016
-3.05237
-2.9794
-2.95323
-3.0262
-2.9794
-2.90742
-2.88124
-2.95323
-2.90742
-2.83642
-2.81025
-2.88124
-2.83642
-2.76641
-2.74024
-2.81025
-2.76641
-2.69739
-2.67121
-2.74024
-2.69739
-2.62935
-2.60318
-2.67121
-2.62935
-2.56231
-2.53613
-2.60318
-2.56231
-2.49625
-2.47008
-2.53613
-2.49625
-2.43118
-2.405
-2.47008
-2.43118
-2.36709
-2.34092
-2.405
-2.36709
-2.304
-2.27782
-2.34092
-2.304
-2.24189
-2.21572
-2.27782
-2.24189
-2.18077
-2.1546
-2.21572
-2.18077
-2.12064
-2.09446
-2.1546
-2.12064
-2.06149
-2.03532
-2.09446
-2.06149
-2.00333
-1.97716
-2.03532
-2.00333
-1.94616
-1.91999
-1.97716
-1.94616
-1.88998
-1.86381
-1.91999
-1.88998
-1.83479
-1.80861
-1.86381
-1.83479
-1.78058
-1.75441
-1.80861
-1.78058
-1.72736
-1.70119
-1.75441
-1.72736
-1.67513
-1.64896
-1.70119
-1.67513
-1.62388
-1.59771
-1.64896
-1.62388
-1.57363
-1.54746
-1.59771
-1.57363
-1.52436
-1.49819
-1.54746
-1.52436
-1.47608
-1.44991
-1.49819
-1.47608
-1.42879
-1.40261
-1.44991
-1.42879
-1.38248
-1.35631
-1.40261
-1.38248
-1.33716
-1.31099
-1.35631
-1.33716
-1.29283
-1.26666
-1.31099
-1.29283
-1.24949
-1.22332
-1.26666
-1.24949
-1.20713
-1.18096
-1.22332
-1.20713
-1.16577
-1.13959
-1.18096
-1.16577
-1.12539
-1.09921
-1.13959
-1.12539
-1.08599
-1.05982
-1.09921
-1.08599
-1.04759
-1.02142
-1.05982
-1.04759
-1.01017
-0.984
-1.02142
-1.01017
-0.973744
-0.947571
-0.984
-0.973744
-0.938303
-0.91213
-0.947571
-0.938303
-0.903849
-0.877676
-0.91213
-0.903849
-0.870383
-0.84421
-0.877676
-0.870383
-0.837904
-0.811731
-0.84421
-0.837904
-0.806413
-0.78024
-0.811731
-0.806413
-0.77591
-0.749737
-0.78024
-0.77591
-0.746395
-0.720222
-0.749737
-0.746395
-0.717867
-0.691694
-0.720222
-0.717867
-0.690326
-0.664154
-0.691694
-0.690326
-0.663774
-0.637601
-0.664154
-0.663774
-0.638209
-0.612036
-0.637601
-0.638209
-0.613632
-0.587459
-0.612036
-0.613632
-0.590042
-0.563869
-0.587459
-0.590042
-0.56744
-0.541267
-0.563869
-0.56744
-0.545826
-0.519653
-0.541267
-0.545826
-0.525199
-0.499026
-0.519653
-0.525199
-0.50556
-0.479387
-0.499026
-0.50556
-0.486909
-0.460736
-0.479387
-0.486909
-0.469245
-0.443072
-0.460736
-0.469245
-0.452569
-0.426396
-0.443072
-0.452569
-0.43688
-0.410708
-0.426396
-0.43688
-0.42218
-0.396007
-0.410708
-0.42218
-0.408467
-0.382294
-0.396007
-0.408467
-0.395741
-0.369568
-0.382294
-0.395741
-0.384003
-0.357831
-0.369568
-0.384003
-0.373253
-0.34708
-0.357831
-0.373253
-0.363491
-0.337318
-0.34708
-0.363491
-0.354716
-0.328543
-0.337318
-0.354716
-0.346929
-0.320756
-0.328543
-0.346929
-0.340129
-0.313956
-0.320756
-0.340129
-0.334317
-0.308145
-0.313956
-0.334317
-0.329493
-0.30332
-0.308145
-0.329493
-0.325657
-0.299484
-0.30332
-0.325657
-0.322808
-0.296635
-0.299484
-0.322808
-0.320947
-0.294774
-0.296635
-0.320947
-0.320073
-0.2939
-0.294774
-0.320073
-0.320187
-0.294014
-0.2939
-0.320187
-0.321289
-0.295116
-0.294014
-0.321289
-0.323378
-0.297205
-0.295116
-0.323378
-0.326455
-0.300282
-0.297205
-0.326455
-0.33052
-0.304347
-0.300282
-0.33052
-0.335572
-0.309399
-0.304347
-0.335572
-0.341612
-0.315439
-0.309399
-0.341612
-0.34864
-0.322467
-0.315439
-0.34864
-0.356655
-0.330482
-0.322467
-0.356655
-0.365658
-0.339485
-0.330482
-0.365658
-0.375649
-0.349476
-0.339485
-0.375649
-0.386627
-0.360454
-0.349476
-0.386627
-0.398593
-0.37242
-0.360454
-0.398593
-0.411547
-0.385374
-0.37242
-0.411547
-0.425488
-0.399315
-0.385374
-0.425488
-0.440417
-0.414244
-0.399315
-0.440417
-0.456333
-0.43016
-0.414244
-0.456333
-0.473237
-0.447065
-0.43016
-0.473237
-0.491129
-0.464956
-0.447065
-0.491129
-0.510009
-0.483836
-0.464956
-0.510009
-0.529876
-0.503703
-0.483836
-0.529876
-0.550731
-0.524558
-0.503703
-0.550731
-0.572573
-0.5464
-0.524558
-0.572573
-0.595403
-0.56923
-0.5464
-0.595403
-0.619221
-0.593048
-0.56923
-0.619221
-0.644027
-0.617854
-0.593048
-0.644027
-0.66982
-0.643647
-0.617854
-0.66982
-0.6966
-0.670428
-0.643647
-0.6966
-0.724369
-0.698196
-0.670428
-0.724369
-0.753125
-0.726952
-0.698196
-0.753125
-0.782869
-0.756696
-0.726952
-0.782869
-0.8136
-0.787427
-0.756696
-0.8136
-0.845319
-0.819146
-0.787427
-5.47041
-5.36979
-5.3446
-5.44523
-5.36979
-5.27015
-5.24496
-5.3446
-5.27015
-5.1715
-5.14631
-5.24496
-5.1715
-5.07383
-5.04865
-5.14631
-5.07383
-4.97716
-4.95197
-5.04865
-4.97716
-4.88147
-4.85628
-4.95197
-4.88147
-4.78677
-4.76158
-4.85628
-4.78677
-4.69305
-4.66787
-4.76158
-4.69305
-4.60033
-4.57514
-4.66787
-4.60033
-4.50859
-4.48341
-4.57514
-4.50859
-4.41784
-4.39266
-4.48341
-4.41784
-4.32808
-4.30289
-4.39266
-4.32808
-4.2393
-4.21412
-4.30289
-4.2393
-4.15152
-4.12633
-4.21412
-4.15152
-4.06472
-4.03953
-4.12633
-4.06472
-3.9789
-3.95372
-4.03953
-3.9789
-3.89408
-3.8689
-3.95372
-3.89408
-3.81024
-3.78506
-3.8689
-3.81024
-3.7274
-3.70221
-3.78506
-3.7274
-3.64553
-3.62035
-3.70221
-3.64553
-3.56466
-3.53948
-3.62035
-3.56466
-3.48477
-3.45959
-3.53948
-3.48477
-3.40588
-3.38069
-3.45959
-3.40588
-3.32797
-3.30278
-3.38069
-3.32797
-3.25104
-3.22586
-3.30278
-3.25104
-3.17511
-3.14992
-3.22586
-3.17511
-3.10016
-3.07497
-3.14992
-3.10016
-3.0262
-3.00101
-3.07497
-3.0262
-2.95323
-2.92804
-3.00101
-2.95323
-2.88124
-2.85606
-2.92804
-2.88124
-2.81025
-2.78506
-2.85606
-2.81025
-2.74024
-2.71505
-2.78506
-2.74024
-2.67121
-2.64603
-2.71505
-2.67121
-2.60318
-2.578
-2.64603
-2.60318
-2.53613
-2.51095
-2.578
-2.53613
-2.47008
-2.44489
-2.51095
-2.47008
-2.405
-2.37982
-2.44489
-2.405
-2.34092
-2.31574
-2.37982
-2.34092
-2.27782
-2.25264
-2.31574
-2.27782
-2.21572
-2.19053
-2.25264
-2.21572
-2.1546
-2.12941
-2.19053
-2.1546
-2.09446
-2.06928
-2.12941
-2.09446
-2.03532
-2.01013
-2.06928
-2.03532
-1.97716
-1.95198
-2.01013
-1.97716
-1.91999
-1.89481
-1.95198
-1.91999
-1.86381
-1.83862
-1.89481
-1.86381
-1.80861
-1.78343
-1.83862
-1.80861
-1.75441
-1.72922
-1.78343
-1.75441
-1.70119
-1.676
-1.72922
-1.70119
-1.64896
-1.62377
-1.676
-1.64896
-1.59771
-1.57253
-1.62377
-1.59771
-1.54746
-1.52227
-1.57253
-1.54746
-1.49819
-1.473
-1.52227
-1.49819
-1.44991
-1.42472
-1.473
-1.44991
-1.40261
-1.37743
-1.42472
-1.40261
-1.35631
-1.33112
-1.37743
-1.35631
-1.31099
-1.2858
-1.33112
-1.31099
-1.26666
-1.24147
-1.2858
-1.26666
-1.22332
-1.19813
-1.24147
-1.22332
-1.18096
-1.15578
-1.19813
-1.18096
-1.13959
-1.11441
-1.15578
-1.13959
-1.09921
-1.07403
-1.11441
-1.09921
-1.05982
-1.03464
-1.07403
-1.05982
-1.02142
-0.996232
-1.03464
-1.02142
-0.984
-0.958815
-0.996232
-0.984
-0.947571
-0.922386
-0.958815
-0.947571
-0.91213
-0.886945
-0.922386
-0.91213
-0.877676
-0.852491
-0.886945
-0.877676
-0.84421
-0.819025
-0.852491
-0.84421
-0.811731
-0.786546
-0.819025
-0.811731
-0.78024
-0.755055
-0.786546
-0.78024
-0.749737
-0.724552
-0.755055
-0.749737
-0.720222
-0.695037
-0.724552
-0.720222
-0.691694
-0.666509
-0.695037
-0.691694
-0.664154
-0.638968
-0.666509
-0.664154
-0.637601
-0.612416
-0.638968
-0.637601
-0.612036
-0.586851
-0.612416
-0.612036
-0.587459
-0.562274
-0.586851
-0.587459
-0.563869
-0.538684
-0.562274
-0.563869
-0.541267
-0.516082
-0.538684
-0.541267
-0.519653
-0.494468
-0.516082
-0.519653
-0.499026
-0.473841
-0.494468
-0.499026
-0.479387
-0.454202
-0.473841
-0.479387
-0.460736
-0.435551
-0.454202
-0.460736
-0.443072
-0.417887
-0.435551
-0.443072
-0.426396
-0.401211
-0.417887
-0.426396
-0.410708
-0.385522
-0.401211
-0.410708
-0.396007
-0.370822
-0.385522
-0.396007
-0.382294
-0.357109
-0.370822
-0.382294
-0.369568
-0.344383
-0.357109
-0.369568
-0.357831
-0.332645
-0.344383
-0.357831
-0.34708
-0.321895
-0.332645
-0.34708
-0.337318
-0.312133
-0.321895
-0.337318
-0.328543
-0.303358
-0.312133
-0.328543
-0.320756
-0.295571
-0.303358
-0.320756
-0.313956
-0.288771
-0.295571
-0.313956
-0.308145
-0.282959
-0.288771
-0.308145
-0.30332
-0.278135
-0.282959
-0.30332
-0.299484
-0.274299
-0.278135
-0.299484
-0.296635
-0.27145
-0.274299
-0.296635
-0.294774
-0.269589
-0.27145
-0.294774
-0.2939
-0.268715
-0.269589
-0.2939
-0.294014
-0.268829
-0.268715
-0.294014
-0.295116
-0.269931
-0.268829
-0.295116
-0.297205
-0.27202
-0.269931
-0.297205
-0.300282
-0.275097
-0.27202
-0.300282
-0.304347
-0.279162
-0.275097
-0.304347
-0.309399
-0.284214
-0.279162
-0.309399
-0.315439
-0.290254
-0.284214
-0.315439
-0.322467
-0.297282
-0.290254
-0.322467
-0.330482
-0.305297
-0.297282
-0.330482
-0.339485
-0.3143
-0.305297
-0.339485
-0.349476
-0.324291
-0.3143
-0.349476
-0.360454
-0.335269
-0.324291
-0.360454
-0.37242
-0.347235
-0.335269
-0.37242
-0.385374
-0.360189
-0.347235
-0.385374
-0.399315
-0.37413
-0.360189
-0.399315
-0.414244
-0.389059
-0.37413
-0.414244
-0.43016
-0.404975
-0.389059
-0.43016
-0.447065
-0.421879
-0.404975
-0.447065
-0.464956
-0.439771
-0.421879
-0.464956
-0.483836
-0.458651
-0.439771
-0.483836
-0.503703
-0.478518
-0.458651
-0.503703
-0.524558
-0.499373
-0.478518
-0.524558
-0.5464
-0.521215
-0.499373
-0.5464
-0.56923
-0.544045
-0.521215
-0.56923
-0.593048
-0.567863
-0.544045
-0.593048
-0.617854
-0.592669
-0.567863
-0.617854
-0.643647
-0.618462
-0.592669
-0.643647
-0.670428
-0.645242
-0.618462
-0.670428
-0.698196
-0.673011
-0.645242
-0.698196
-0.726952
-0.701767
-0.673011
-0.726952
-0.756696
-0.73151
-0.701767
-0.756696
-0.787427
-0.762242
-0.73151
-0.787427
-0.819146
-0.793961
-0.762242
-5.44523
-5.3446
-5.3204
-5.42103
-5.3446
-5.24496
-5.22076
-5.3204
-5.24496
-5.14631
-5.12211
-5.22076
-5.14631
-5.04865
-5.02445
-5.12211
-5.04865
-4.95197
-4.92777
-5.02445
-4.95197
-4.85628
-4.83209
-4.92777
-4.85628
-4.76158
-4.73738
-4.83209
-4.76158
-4.66787
-4.64367
-4.73738
-4.66787
-4.57514
-4.55095
-4.64367
-4.57514
-4.48341
-4.45921
-4.55095
-4.48341
-4.39266
-4.36846
-4.45921
-4.39266
-4.30289
-4.2787
-4.36846
-4.30289
-4.21412
-4.18992
-4.2787
-4.21412
-4.12633
-4.10213
-4.18992
-4.12633
-4.03953
-4.01533
-4.10213
-4.03953
-3.95372
-3.92952
-4.01533
-3.95372
-3.8689
-3.8447
-3.92952
-3.8689
-3.78506
-3.76086
-3.8447
-3.78506
-3.70221
-3.67801
-3.76086
-3.70221
-3.62035
-3.59615
-3.67801
-3.62035
-3.53948
-3.51528
-3.59615
-3.53948
-3.45959
-3.43539
-3.51528
-3.45959
-3.38069
-3.35649
-3.43539
-3.38069
-3.30278
-3.27858
-3.35649
-3.30278
-3.22586
-3.20166
-3.27858
-3.22586
-3.14992
-3.12572
-3.20166
-3.14992
-3.07497
-3.05078
-3.12572
-3.07497
-3.00101
-2.97682
-3.05078
-3.00101
-2.92804
-2.90384
-2.97682
-2.92804
-2.85606
-2.83186
-2.90384
-2.85606
-2.78506
-2.76086
-2.83186
-2.78506
-2.71505
-2.69085
-2.76086
-2.71505
-2.64603
-2.62183
-2.69085
-2.64603
-2.578
-2.5538
-2.62183
-2.578
-2.51095
-2.48675
-2.5538
-2.51095
-2.44489
-2.42069
-2.48675
-2.44489
-2.37982
-2.35562
-2.42069
-2.37982
-2.31574
-2.29154
-2.35562
-2.31574
-2.25264
-2.22844
-2.29154
-2.25264
-2.19053
-2.16633
-2.22844
-2.19053
-2.12941
-2.10521
-2.16633
-2.12941
-2.06928
-2.04508
-2.10521
-2.06928
-2.01013
-1.98594
-2.04508
-2.01013
-1.95198
-1.92778
-1.98594
-1.95198
-1.89481
-1.87061
-1.92778
-1.89481
-1.83862
-1.81443
-1.87061
-1.83862
-1.78343
-1.75923
-1.81443
-1.78343
-1.72922
-1.70502
-1.75923
-1.72922
-1.676
-1.6518
-1.70502
-1.676
-1.62377
-1.59957
-1.6518
-1.62377
-1.57253
-1.54833
-1.59957
-1.57253
-1.52227
-1.49807
-1.54833
-1.52227
-1.473
-1.4488
-1.49807
-1.473
-1.42472
-1.40052
-1.4488
-1.42472
-1.37743
-1.35323
-1.40052
-1.37743
-1.33112
-1.30692
-1.35323
-1.33112
-1.2858
-1.26161
-1.30692
-1.2858
-1.24147
-1.21728
-1.26161
-1.24147
-1.19813
-1.17393
-1.21728
-1.19813
-1.15578
-1.13158
-1.17393
-1.15578
-1.11441
-1.09021
-1.13158
-1.11441
-1.07403
-1.04983
-1.09021
-1.07403
-1.03464
-1.01044
-1.04983
-1.03464
-0.996232
-0.972035
-1.01044
-0.996232
-0.958815
-0.934618
-0.972035
-0.958815
-0.922386
-0.898189
-0.934618
-0.922386
-0.886945
-0.862747
-0.898189
-0.886945
-0.852491
-0.828293
-0.862747
-0.852491
-0.819025
-0.794827
-0.828293
-0.819025
-0.786546
-0.762349
-0.794827
-0.786546
-0.755055
-0.730858
-0.762349
-0.755055
-0.724552
-0.700355
-0.730858
-0.724552
-0.695037
-0.670839
-0.700355
-0.695037
-0.666509
-0.642311
-0.670839
-0.666509
-0.638968
-0.614771
-0.642311
-0.638968
-0.612416
-0.588218
-0.614771
-0.612416
-0.586851
-0.562653
-0.588218
-0.586851
-0.562274
-0.538076
-0.562653
-0.562274
-0.538684
-0.514486
-0.538076
-0.538684
-0.516082
-0.491884
-0.514486
-0.516082
-0.494468
-0.47027
-0.491884
-0.494468
-0.473841
-0.449643
-0.47027
-0.473841
-0.454202
-0.430004
-0.449643
-0.454202
-0.435551
-0.411353
-0.430004
-0.435551
-0.417887
-0.393689
-0.411353
-0.417887
-0.401211
-0.377013
-0.393689
-0.401211
-0.385522
-0.361325
-0.377013
-0.385522
-0.370822
-0.346624
-0.361325
-0.370822
-0.357109
-0.332911
-0.346624
-0.357109
-0.344383
-0.320186
-0.332911
-0.344383
-0.332645
-0.308448
-0.320186
-0.332645
-0.321895
-0.297698
-0.308448
-0.321895
-0.312133
-0.287935
-0.297698
-0.312133
-0.303358
-0.27916
-0.287935
-0.303358
-0.295571
-0.271373
-0.27916
-0.295571
-0.288771
-0.264574
-0.271373
-0.288771
-0.282959
-0.258762
-0.264574
-0.282959
-0.278135
-0.253938
-0.258762
-0.278135
-0.274299
-0.250101
-0.253938
-0.274299
-0.27145
-0.247252
-0.250101
-0.27145
-0.269589
-0.245391
-0.247252
-0.269589
-0.268715
-0.244517
-0.245391
-0.268715
-0.268829
-0.244632
-0.244517
-0.268829
-0.269931
-0.245733
-0.244632
-0.269931
-0.27202
-0.247823
-0.245733
-0.27202
-0.275097
-0.2509
-0.247823
-0.275097
-0.279162
-0.254964
-0.2509
-0.279162
-0.284214
-0.260017
-0.254964
-0.284214
-0.290254
-0.266057
-0.260017
-0.290254
-0.297282
-0.273084
-0.266057
-0.297282
-0.305297
-0.2811
-0.273084
-0.305297
-0.3143
-0.290103
-0.2811
-0.3143
-0.324291
-0.300093
-0.290103
-0.324291
-0.335269
-0.311072
-0.300093
-0.335269
-0.347235
-0.323037
-0.311072
-0.347235
-0.360189
-0.335991
-0.323037
-0.360189
-0.37413
-0.349932
-0.335991
-0.37413
-0.389059
-0.364861
-0.349932
-0.389059
-0.404975
-0.380778
-0.364861
-0.404975
-0.421879
-0.397682
-0.380778
-0.421879
-0.439771
-0.415574
-0.397682
-0.439771
-0.458651
-0.434453
-0.415574
-0.458651
-0.478518
-0.45432
-0.434453
-0.478518
-0.499373
-0.475175
-0.45432
-0.499373
-0.521215
-0.497018
-0.475175
-0.521215
-0.544045
-0.519848
-0.497018
-0.544045
-0.567863
-0.543666
-0.519848
-0.567863
-0.592669
-0.568471
-0.543666
-0.592669
-0.618462
-0.594264
-0.568471
-0.618462
-0.645242
-0.621045
-0.594264
-0.645242
-0.673011
-0.648813
-0.621045
-0.673011
-0.701767
-0.677569
-0.648813
-0.701767
-0.73151
-0.707313
-0.677569
-0.73151
-0.762242
-0.738044
-0.707313
-0.762242
-0.793961
-0.769763
-0.738044
-5.42103
-5.3204
-5.29719
-5.39782
-5.3204
-5.22076
-5.19755
-5.29719
-5.22076
-5.12211
-5.0989
-5.19755
-5.12211
-5.02445
-5.00124
-5.0989
-5.02445
-4.92777
-4.90456
-5.00124
-4.92777
-4.83209
-4.80888
-4.90456
-4.83209
-4.73738
-4.71417
-4.80888
-4.73738
-4.64367
-4.62046
-4.71417
-4.64367
-4.55095
-4.52774
-4.62046
-4.55095
-4.45921
-4.436
-4.52774
-4.45921
-4.36846
-4.34525
-4.436
-4.36846
-4.2787
-4.25549
-4.34525
-4.2787
-4.18992
-4.16671
-4.25549
-4.18992
-4.10213
-4.07892
-4.16671
-4.10213
-4.01533
-3.99212
-4.07892
-4.01533
-3.92952
-3.90631
-3.99212
-3.92952
-3.8447
-3.82149
-3.90631
-3.8447
-3.76086
-3.73765
-3.82149
-3.76086
-3.67801
-3.6548
-3.73765
-3.67801
-3.59615
-3.57294
-3.6548
-3.59615
-3.51528
-3.49207
-3.57294
-3.51528
-3.43539
-3.41218
-3.49207
-3.43539
-3.35649
-3.33328
-3.41218
-3.35649
-3.27858
-3.25537
-3.33328
-3.27858
-3.20166
-3.17845
-3.25537
-3.20166
-3.12572
-3.10251
-3.17845
-3.12572
-3.05078
-3.02757
-3.10251
-3.05078
-2.97682
-2.95361
-3.02757
-2.97682
-2.90384
-2.88063
-2.95361
-2.90384
-2.83186
-2.80865
-2.88063
-2.83186
-2.76086
-2.73765
-2.80865
-2.76086
-2.69085
-2.66764
-2.73765
-2.69085
-2.62183
-2.59862
-2.66764
-2.62183
-2.5538
-2.53059
-2.59862
-2.5538
-2.48675
-2.46354
-2.53059
-2.48675
-2.42069
-2.39748
-2.46354
-2.42069
-2.35562
-2.33241
-2.39748
-2.35562
-2.29154
-2.26833
-2.33241
-2.29154
-2.22844
-2.20523
-2.26833
-2.22844
-2.16633
-2.14312
-2.20523
-2.16633
-2.10521
-2.082
-2.14312
-2.10521
-2.04508
-2.02187
-2.082
-2.04508
-1.98594
-1.96273
-2.02187
-1.98594
-1.92778
-1.90457
-1.96273
-1.92778
-1.87061
-1.8474
-1.90457
-1.87061
-1.81443
-1.79122
-1.8474
-1.81443
-1.75923
-1.73602
-1.79122
-1.75923
-1.70502
-1.68181
-1.73602
-1.70502
-1.6518
-1.6286
-1.68181
-1.6518
-1.59957
-1.57636
-1.6286
-1.59957
-1.54833
-1.52512
-1.57636
-1.54833
-1.49807
-1.47486
-1.52512
-1.49807
-1.4488
-1.42559
-1.47486
-1.4488
-1.40052
-1.37731
-1.42559
-1.40052
-1.35323
-1.33002
-1.37731
-1.35323
-1.30692
-1.28371
-1.33002
-1.30692
-1.26161
-1.2384
-1.28371
-1.26161
-1.21728
-1.19407
-1.2384
-1.21728
-1.17393
-1.15072
-1.19407
-1.17393
-1.13158
-1.10837
-1.15072
-1.13158
-1.09021
-1.067
-1.10837
-1.09021
-1.04983
-1.02662
-1.067
-1.04983
-1.01044
-0.987229
-1.02662
-1.01044
-0.972035
-0.948825
-0.987229
-0.972035
-0.934618
-0.911408
-0.948825
-0.934618
-0.898189
-0.874979
-0.911408
-0.898189
-0.862747
-0.839537
-0.874979
-0.862747
-0.828293
-0.805083
-0.839537
-0.828293
-0.794827
-0.771617
-0.805083
-0.794827
-0.762349
-0.739139
-0.771617
-0.762349
-0.730858
-0.707648
-0.739139
-0.730858
-0.700355
-0.677145
-0.707648
-0.700355
-0.670839
-0.647629
-0.677145
-0.670839
-0.642311
-0.619101
-0.647629
-0.642311
-0.614771
-0.591561
-0.619101
-0.614771
-0.588218
-0.565008
-0.591561
-0.588218
-0.562653
-0.539443
-0.565008
-0.562653
-0.538076
-0.514866
-0.539443
-0.538076
-0.514486
-0.491277
-0.514866
-0.514486
-0.491884
-0.468675
-0.491277
-0.491884
-0.47027
-0.44706
-0.468675
-0.47027
-0.449643
-0.426434
-0.44706
-0.449643
-0.430004
-0.406795
-0.426434
-0.430004
-0.411353
-0.388143
-0.406795
-0.411353
-0.393689
-0.370479
-0.388143
-0.393689
-0.377013
-0.353803
-0.370479
-0.377013
-0.361325
-0.338115
-0.353803
-0.361325
-0.346624
-0.323414
-0.338115
-0.346624
-0.332911
-0.309701
-0.323414
-0.332911
-0.320186
-0.296976
-0.309701
-0.320186
-0.308448
-0.285238
-0.296976
-0.308448
-0.297698
-0.274488
-0.285238
-0.297698
-0.287935
-0.264725
-0.274488
-0.287935
-0.27916
-0.255951
-0.264725
-0.27916
-0.271373
-0.248163
-0.255951
-0.271373
-0.264574
-0.241364
-0.248163
-0.264574
-0.258762
-0.235552
-0.241364
-0.258762
-0.253938
-0.230728
-0.235552
-0.253938
-0.250101
-0.226891
-0.230728
-0.250101
-0.247252
-0.224042
-0.226891
-0.247252
-0.245391
-0.222181
-0.224042
-0.245391
-0.244517
-0.221308
-0.222181
-0.244517
-0.244632
-0.221422
-0.221308
-0.244632
-0.245733
-0.222523
-0.221422
-0.245733
-0.247823
-0.224613
-0.222523
-0.247823
-0.2509
-0.22769
-0.224613
-0.2509
-0.254964
-0.231754
-0.22769
-0.254964
-0.260017
-0.236807
-0.231754
-0.260017
-0.266057
-0.242847
-0.236807
-0.266057
-0.273084
-0.249874
-0.242847
-0.273084
-0.2811
-0.25789
-0.249874
-0.2811
-0.290103
-0.266893
-0.25789
-0.290103
-0.300093
-0.276883
-0.266893
-0.300093
-0.311072
-0.287862
-0.276883
-0.311072
-0.323037
-0.299828
-0.287862
-0.323037
-0.335991
-0.312781
-0.299828
-0.335991
-0.349932
-0.326722
-0.312781
-0.349932
-0.364861
-0.341651
-0.326722
-0.364861
-0.380778
-0.357568
-0.341651
-0.380778
-0.397682
-0.374472
-0.357568
-0.397682
-0.415574
-0.392364
-0.374472
-0.415574
-0.434453
-0.411243
-0.392364
-0.434453
-0.45432
-0.431111
-0.411243
-0.45432
-0.475175
-0.451965
-0.431111
-0.475175
-0.497018
-0.473808
-0.451965
-0.497018