# vtk DataFile Version 1.0
unstructured Grid
ASCII
DATASET UNSTRUCTURED_GRID
POINTS 23424 float 
0 0	 0.0
0.0222222 0	 0.0
0.0222222 0.0222222	 0.0
0 0.0222222	 0.0
0.0222222 0	 0.0
0.0444444 0	 0.0
0.0444444 0.0222222	 0.0
0.0222222 0.0222222	 0.0
0.0444444 0	 0.0
0.0666667 0	 0.0
0.0666667 0.0222222	 0.0
0.0444444 0.0222222	 0.0
0.0666667 0	 0.0
0.0888889 0	 0.0
0.0888889 0.0222222	 0.0
0.0666667 0.0222222	 0.0
0.0888889 0	 0.0
0.111111 0	 0.0
0.111111 0.0222222	 0.0
0.0888889 0.0222222	 0.0
0.111111 0	 0.0
0.133333 0	 0.0
0.133333 0.0222222	 0.0
0.111111 0.0222222	 0.0
0.133333 0	 0.0
0.155556 0	 0.0
0.155556 0.0222222	 0.0
0.133333 0.0222222	 0.0
0.155556 0	 0.0
0.177778 0	 0.0
0.177778 0.0222222	 0.0
0.155556 0.0222222	 0.0
0.177778 0	 0.0
0.2 0	 0.0
0.2 0.0222222	 0.0
0.177778 0.0222222	 0.0
0.2 0	 0.0
0.222222 0	 0.0
0.222222 0.0222222	 0.0
0.2 0.0222222	 0.0
0.222222 0	 0.0
0.244444 0	 0.0
0.244444 0.0222222	 0.0
0.222222 0.0222222	 0.0
0.244444 0	 0.0
0.266667 0	 0.0
0.266667 0.0222222	 0.0
0.244444 0.0222222	 0.0
0.266667 0	 0.0
0.288889 0	 0.0
0.288889 0.0222222	 0.0
0.266667 0.0222222	 0.0
0.288889 0	 0.0
0.311111 0	 0.0
0.311111 0.0222222	 0.0
0.288889 0.0222222	 0.0
0.311111 0	 0.0
0.333333 0	 0.0
0.333333 0.0222222	 0.0
0.311111 0.0222222	 0.0
0.333333 0	 0.0
0.355556 0	 0.0
0.355556 0.0222222	 0.0
0.333333 0.0222222	 0.0
0.355556 0	 0.0
0.377778 0	 0.0
0.377778 0.0222222	 0.0
0.355556 0.0222222	 0.0
0.377778 0	 0.0
0.4 0	 0.0
0.4 0.0222222	 0.0
0.377778 0.0222222	 0.0
0.4 0	 0.0
0.422222 0	 0.0
0.422222 0.0222222	 0.0
0.4 0.0222222	 0.0
0.422222 0	 0.0
0.444444 0	 0.0
0.444444 0.0222222	 0.0
0.422222 0.0222222	 0.0
0.444444 0	 0.0
0.466667 0	 0.0
0.466667 0.0222222	 0.0
0.444444 0.0222222	 0.0
0.466667 0	 0.0
0.488889 0	 0.0
0.488889 0.0222222	 0.0
0.466667 0.0222222	 0.0
0.488889 0	 0.0
0.511111 0	 0.0
0.511111 0.0222222	 0.0
0.488889 0.0222222	 0.0
0.511111 0	 0.0
0.533333 0	 0.0
0.533333 0.0222222	 0.0
0.511111 0.0222222	 0.0
0.533333 0	 0.0
0.555556 0	 0.0
0.555556 0.0222222	 0.0
0.533333 0.0222222	 0.0
0.555556 0	 0.0
0.577778 0	 0.0
0.577778 0.0222222	 0.0
0.555556 0.0222222	 0.0
0.577778 0	 0.0
0.6 0	 0.0
0.6 0.0222222	 0.0
0.577778 0.0222222	 0.0
0.6 0	 0.0
0.622222 0	 0.0
0.622222 0.0222222	 0.0
0.6 0.0222222	 0.0
0.622222 0	 0.0
0.644444 0	 0.0
0.644444 0.0222222	 0.0
0.622222 0.0222222	 0.0
0.644444 0	 0.0
0.666667 0	 0.0
0.666667 0.0222222	 0.0
0.644444 0.0222222	 0.0
0.666667 0	 0.0
0.688889 0	 0.0
0.688889 0.0222222	 0.0
0.666667 0.0222222	 0.0
0.688889 0	 0.0
0.711111 0	 0.0
0.711111 0.0222222	 0.0
0.688889 0.0222222	 0.0
0.711111 0	 0.0
0.733333 0	 0.0
0.733333 0.0222222	 0.0
0.711111 0.0222222	 0.0
0.733333 0	 0.0
0.755556 0	 0.0
0.755556 0.0222222	 0.0
0.733333 0.0222222	 0.0
0.755556 0	 0.0
0.777778 0	 0.0
0.777778 0.0222222	 0.0
0.755556 0.0222222	 0.0
0.777778 0	 0.0
0.8 0	 0.0
0.8 0.0222222	 0.0
0.777778 0.0222222	 0.0
0.8 0	 0.0
0.822222 0	 0.0
0.822222 0.0222222	 0.0
0.8 0.0222222	 0.0
0.822222 0	 0.0
0.844444 0	 0.0
0.844444 0.0222222	 0.0
0.822222 0.0222222	 0.0
0.844444 0	 0.0
0.866667 0	 0.0
0.866667 0.0222222	 0.0
0.844444 0.0222222	 0.0
0.866667 0	 0.0
0.888889 0	 0.0
0.888889 0.0222222	 0.0
0.866667 0.0222222	 0.0
0.888889 0	 0.0
0.911111 0	 0.0
0.911111 0.0222222	 0.0
0.888889 0.0222222	 0.0
0.911111 0	 0.0
0.933333 0	 0.0
0.933333 0.0222222	 0.0
0.911111 0.0222222	 0.0
0.933333 0	 0.0
0.955556 0	 0.0
0.955556 0.0222222	 0.0
0.933333 0.0222222	 0.0
0.955556 0	 0.0
0.977778 0	 0.0
0.977778 0.0222222	 0.0
0.955556 0.0222222	 0.0
0.977778 0	 0.0
1 0	 0.0
1 0.0222222	 0.0
0.977778 0.0222222	 0.0
1 0	 0.0
1.02222 0	 0.0
1.02222 0.0222222	 0.0
1 0.0222222	 0.0
1.02222 0	 0.0
1.04444 0	 0.0
1.04444 0.0222222	 0.0
1.02222 0.0222222	 0.0
1.04444 0	 0.0
1.06667 0	 0.0
1.06667 0.0222222	 0.0
1.04444 0.0222222	 0.0
1.06667 0	 0.0
1.08889 0	 0.0
1.08889 0.0222222	 0.0
1.06667 0.0222222	 0.0
1.08889 0	 0.0
1.11111 0	 0.0
1.11111 0.0222222	 0.0
1.08889 0.0222222	 0.0
1.11111 0	 0.0
1.13333 0	 0.0
1.13333 0.0222222	 0.0
1.11111 0.0222222	 0.0
1.13333 0	 0.0
1.15556 0	 0.0
1.15556 0.0222222	 0.0
1.13333 0.0222222	 0.0
1.15556 0	 0.0
1.17778 0	 0.0
1.17778 0.0222222	 0.0
1.15556 0.0222222	 0.0
1.17778 0	 0.0
1.2 0	 0.0
1.2 0.0222222	 0.0
1.17778 0.0222222	 0.0
1.2 0	 0.0
1.22222 0	 0.0
1.22222 0.0222222	 0.0
1.2 0.0222222	 0.0
1.22222 0	 0.0
1.24444 0	 0.0
1.24444 0.0222222	 0.0
1.22222 0.0222222	 0.0
1.24444 0	 0.0
1.26667 0	 0.0
1.26667 0.0222222	 0.0
1.24444 0.0222222	 0.0
1.26667 0	 0.0
1.28889 0	 0.0
1.28889 0.0222222	 0.0
1.26667 0.0222222	 0.0
1.28889 0	 0.0
1.31111 0	 0.0
1.31111 0.0222222	 0.0
1.28889 0.0222222	 0.0
1.31111 0	 0.0
1.33333 0	 0.0
1.33333 0.0222222	 0.0
1.31111 0.0222222	 0.0
1.33333 0	 0.0
1.35556 0	 0.0
1.35556 0.0222222	 0.0
1.33333 0.0222222	 0.0
1.35556 0	 0.0
1.37778 0	 0.0
1.37778 0.0222222	 0.0
1.35556 0.0222222	 0.0
1.37778 0	 0.0
1.4 0	 0.0
1.4 0.0222222	 0.0
1.37778 0.0222222	 0.0
1.4 0	 0.0
1.42222 0	 0.0
1.42222 0.0222222	 0.0
1.4 0.0222222	 0.0
1.42222 0	 0.0
1.44444 0	 0.0
1.44444 0.0222222	 0.0
1.42222 0.0222222	 0.0
1.44444 0	 0.0
1.46667 0	 0.0
1.46667 0.0222222	 0.0
1.44444 0.0222222	 0.0
1.46667 0	 0.0
1.48889 0	 0.0
1.48889 0.0222222	 0.0
1.46667 0.0222222	 0.0
1.48889 0	 0.0
1.51111 0	 0.0
1.51111 0.0222222	 0.0
1.48889 0.0222222	 0.0
1.51111 0	 0.0
1.53333 0	 0.0
1.53333 0.0222222	 0.0
1.51111 0.0222222	 0.0
1.53333 0	 0.0
1.55556 0	 0.0
1.55556 0.0222222	 0.0
1.53333 0.0222222	 0.0
1.55556 0	 0.0
1.57778 0	 0.0
1.57778 0.0222222	 0.0
1.55556 0.0222222	 0.0
1.57778 0	 0.0
1.6 0	 0.0
1.6 0.0222222	 0.0
1.57778 0.0222222	 0.0
1.6 0	 0.0
1.62222 0	 0.0
1.62222 0.0222222	 0.0
1.6 0.0222222	 0.0
1.62222 0	 0.0
1.64444 0	 0.0
1.64444 0.0222222	 0.0
1.62222 0.0222222	 0.0
1.64444 0	 0.0
1.66667 0	 0.0
1.66667 0.0222222	 0.0
1.64444 0.0222222	 0.0
1.66667 0	 0.0
1.68889 0	 0.0
1.68889 0.0222222	 0.0
1.66667 0.0222222	 0.0
1.68889 0	 0.0
1.71111 0	 0.0
1.71111 0.0222222	 0.0
1.68889 0.0222222	 0.0
1.71111 0	 0.0
1.73333 0	 0.0
1.73333 0.0222222	 0.0
1.71111 0.0222222	 0.0
1.73333 0	 0.0
1.75556 0	 0.0
1.75556 0.0222222	 0.0
1.73333 0.0222222	 0.0
1.75556 0	 0.0
1.77778 0	 0.0
1.77778 0.0222222	 0.0
1.75556 0.0222222	 0.0
1.77778 0	 0.0
1.8 0	 0.0
1.8 0.0222222	 0.0
1.77778 0.0222222	 0.0
1.8 0	 0.0
1.82222 0	 0.0
1.82222 0.0222222	 0.0
1.8 0.0222222	 0.0
1.82222 0	 0.0
1.84444 0	 0.0
1.84444 0.0222222	 0.0
1.82222 0.0222222	 0.0
1.84444 0	 0.0
1.86667 0	 0.0
1.86667 0.0222222	 0.0
1.84444 0.0222222	 0.0
1.86667 0	 0.0
1.88889 0	 0.0
1.88889 0.0222222	 0.0
1.86667 0.0222222	 0.0
1.88889 0	 0.0
1.91111 0	 0.0
1.91111 0.0222222	 0.0
1.88889 0.0222222	 0.0
1.91111 0	 0.0
1.93333 0	 0.0
1.93333 0.0222222	 0.0
1.91111 0.0222222	 0.0
1.93333 0	 0.0
1.95556 0	 0.0
1.95556 0.0222222	 0.0
1.93333 0.0222222	 0.0
1.95556 0	 0.0
1.97778 0	 0.0
1.97778 0.0222222	 0.0
1.95556 0.0222222	 0.0
1.97778 0	 0.0
2 0	 0.0
2 0.0222222	 0.0
1.97778 0.0222222	 0.0
2 0	 0.0
2.02222 0	 0.0
2.02222 0.0222222	 0.0
2 0.0222222	 0.0
2.02222 0	 0.0
2.04444 0	 0.0
2.04444 0.0222222	 0.0
2.02222 0.0222222	 0.0
2.04444 0	 0.0
2.06667 0	 0.0
2.06667 0.0222222	 0.0
2.04444 0.0222222	 0.0
2.06667 0	 0.0
2.08889 0	 0.0
2.08889 0.0222222	 0.0
2.06667 0.0222222	 0.0
2.08889 0	 0.0
2.11111 0	 0.0
2.11111 0.0222222	 0.0
2.08889 0.0222222	 0.0
2.11111 0	 0.0
2.13333 0	 0.0
2.13333 0.0222222	 0.0
2.11111 0.0222222	 0.0
2.13333 0	 0.0
2.15556 0	 0.0
2.15556 0.0222222	 0.0
2.13333 0.0222222	 0.0
2.15556 0	 0.0
2.17778 0	 0.0
2.17778 0.0222222	 0.0
2.15556 0.0222222	 0.0
2.17778 0	 0.0
2.2 0	 0.0
2.2 0.0222222	 0.0
2.17778 0.0222222	 0.0
2.2 0	 0.0
2.22222 0	 0.0
2.22222 0.0222222	 0.0
2.2 0.0222222	 0.0
2.22222 0	 0.0
2.24444 0	 0.0
2.24444 0.0222222	 0.0
2.22222 0.0222222	 0.0
2.24444 0	 0.0
2.26667 0	 0.0
2.26667 0.0222222	 0.0
2.24444 0.0222222	 0.0
2.26667 0	 0.0
2.28889 0	 0.0
2.28889 0.0222222	 0.0
2.26667 0.0222222	 0.0
2.28889 0	 0.0
2.31111 0	 0.0
2.31111 0.0222222	 0.0
2.28889 0.0222222	 0.0
2.31111 0	 0.0
2.33333 0	 0.0
2.33333 0.0222222	 0.0
2.31111 0.0222222	 0.0
2.33333 0	 0.0
2.35556 0	 0.0
2.35556 0.0222222	 0.0
2.33333 0.0222222	 0.0
2.35556 0	 0.0
2.37778 0	 0.0
2.37778 0.0222222	 0.0
2.35556 0.0222222	 0.0
2.37778 0	 0.0
2.4 0	 0.0
2.4 0.0222222	 0.0
2.37778 0.0222222	 0.0
2.4 0	 0.0
2.42222 0	 0.0
2.42222 0.0222222	 0.0
2.4 0.0222222	 0.0
2.42222 0	 0.0
2.44444 0	 0.0
2.44444 0.0222222	 0.0
2.42222 0.0222222	 0.0
2.44444 0	 0.0
2.46667 0	 0.0
2.46667 0.0222222	 0.0
2.44444 0.0222222	 0.0
2.46667 0	 0.0
2.48889 0	 0.0
2.48889 0.0222222	 0.0
2.46667 0.0222222	 0.0
2.48889 0	 0.0
2.51111 0	 0.0
2.51111 0.0222222	 0.0
2.48889 0.0222222	 0.0
2.51111 0	 0.0
2.53333 0	 0.0
2.53333 0.0222222	 0.0
2.51111 0.0222222	 0.0
2.53333 0	 0.0
2.55556 0	 0.0
2.55556 0.0222222	 0.0
2.53333 0.0222222	 0.0
2.55556 0	 0.0
2.57778 0	 0.0
2.57778 0.0222222	 0.0
2.55556 0.0222222	 0.0
2.57778 0	 0.0
2.6 0	 0.0
2.6 0.0222222	 0.0
2.57778 0.0222222	 0.0
2.6 0	 0.0
2.62222 0	 0.0
2.62222 0.0222222	 0.0
2.6 0.0222222	 0.0
2.62222 0	 0.0
2.64444 0	 0.0
2.64444 0.0222222	 0.0
2.62222 0.0222222	 0.0
2.64444 0	 0.0
2.66667 0	 0.0
2.66667 0.0222222	 0.0
2.64444 0.0222222	 0.0
2.66667 0	 0.0
2.68889 0	 0.0
2.68889 0.0222222	 0.0
2.66667 0.0222222	 0.0
2.68889 0	 0.0
2.71111 0	 0.0
2.71111 0.0222222	 0.0
2.68889 0.0222222	 0.0
2.71111 0	 0.0
2.73333 0	 0.0
2.73333 0.0222222	 0.0
2.71111 0.0222222	 0.0
2.73333 0	 0.0
2.75556 0	 0.0
2.75556 0.0222222	 0.0
2.73333 0.0222222	 0.0
2.75556 0	 0.0
2.77778 0	 0.0
2.77778 0.0222222	 0.0
2.75556 0.0222222	 0.0
2.77778 0	 0.0
2.8 0	 0.0
2.8 0.0222222	 0.0
2.77778 0.0222222	 0.0
2.8 0	 0.0
2.82222 0	 0.0
2.82222 0.0222222	 0.0
2.8 0.0222222	 0.0
2.82222 0	 0.0
2.84444 0	 0.0
2.84444 0.0222222	 0.0
2.82222 0.0222222	 0.0
2.84444 0	 0.0
2.86667 0	 0.0
2.86667 0.0222222	 0.0
2.84444 0.0222222	 0.0
2.86667 0	 0.0
2.88889 0	 0.0
2.88889 0.0222222	 0.0
2.86667 0.0222222	 0.0
2.88889 0	 0.0
2.91111 0	 0.0
2.91111 0.0222222	 0.0
2.88889 0.0222222	 0.0
2.91111 0	 0.0
[...]
POINT_DATA 23424
SCALARS levelset_first float
LOOKUP_TABLE default
-1.00726
-0.970904
-0.944731
-0.981082
-0.970904
-0.935541
-0.909368
-0.944731
-0.935541
-0.901165
-0.874992
-0.909368
-0.901165
-0.867777
-0.841604
-0.874992
-0.867777
-0.835377
-0.809204
-0.841604
-0.835377
-0.803964
-0.777791
-0.809204
-0.803964
-0.773539
-0.747366
-0.777791
-0.773539
-0.744101
-0.717929
-0.747366
-0.744101
-0.715652
-0.689479
-0.717929
-0.715652
-0.68819
-0.662017
-0.689479
-0.68819
-0.661715
-0.635542
-0.662017
-0.661715
-0.636228
-0.610056
-0.635542
-0.636228
-0.611729
-0.585556
-0.610056
-0.611729
-0.588218
-0.562045
-0.585556
-0.588218
-0.565694
-0.539521
-0.562045
-0.565694
-0.544158
-0.517985
-0.539521
-0.544158
-0.523609
-0.497436
-0.517985
-0.523609
-0.504048
-0.477875
-0.497436
-0.504048
-0.485475
-0.459302
-0.477875
-0.485475
-0.46789
-0.441717
-0.459302
-0.46789
-0.451292
-0.425119
-0.441717
-0.451292
-0.435681
-0.409509
-0.425119
-0.435681
-0.421059
-0.394886
-0.409509
-0.421059
-0.407424
-0.381251
-0.394886
-0.407424
-0.394777
-0.368604
-0.381251
-0.394777
-0.383117
-0.356944
-0.368604
-0.383117
-0.372445
-0.346272
-0.356944
-0.372445
-0.362761
-0.336588
-0.346272
-0.362761
-0.354064
-0.327891
-0.336588
-0.354064
-0.346355
-0.320182
-0.327891
-0.346355
-0.339634
-0.313461
-0.320182
-0.339634
-0.3339
-0.307727
-0.313461
-0.3339
-0.329154
-0.302981
-0.307727
-0.329154
-0.325395
-0.299222
-0.302981
-0.325395
-0.322625
-0.296452
-0.299222
-0.322625
-0.320841
-0.294669
-0.296452
-0.320841
-0.320046
-0.293873
-0.294669
-0.320046
-0.320238
-0.294065
-0.293873
-0.320238
-0.321418
-0.295245
-0.294065
-0.321418
-0.323586
-0.297413
-0.295245
-0.323586
-0.326741
-0.300568
-0.297413
-0.326741
-0.330884
-0.304711
-0.300568
-0.330884
-0.336014
-0.309841
-0.304711
-0.336014
-0.342132
-0.315959
-0.309841
-0.342132
-0.349238
-0.323065
-0.315959
-0.349238
-0.357332
-0.331159
-0.323065
-0.357332
-0.366413
-0.34024
-0.331159
-0.366413
-0.376481
-0.350309
-0.34024
-0.376481
-0.387538
-0.361365
-0.350309
-0.387538
-0.399582
-0.373409
-0.361365
-0.399582
-0.412614
-0.386441
-0.373409
-0.412614
-0.426633
-0.40046
-0.386441
-0.426633
-0.44164
-0.415467
-0.40046
-0.44164
-0.457635
-0.431462
-0.415467
-0.457635
-0.474617
-0.448444
-0.431462
-0.474617
-0.492587
-0.466414
-0.448444
-0.492587
-0.511545
-0.485372
-0.466414
-0.511545
-0.53149
-0.505317
-0.485372
-0.53149
-0.552423
-0.52625
-0.505317
-0.552423
-0.574344
-0.548171
-0.52625
-0.574344
-0.597252
-0.571079
-0.548171
-0.597252
-0.621148
-0.594975
-0.571079
-0.621148
-0.646031
-0.619858
-0.594975
-0.646031
-0.671903
-0.64573
-0.619858
-0.671903
-0.698761
-0.672589
-0.64573
-0.698761
-0.726608
-0.700435
-0.672589
-0.726608
-0.755442
-0.729269
-0.700435
-0.755442
-0.785264
-0.759091
-0.729269
-0.785264
-0.816073
-0.789901
-0.759091
-0.816073
-0.847871
-0.821698
-0.789901
-0.847871
-0.880655
-0.854483
-0.821698
-0.880655
-0.914428
-0.888255
-0.854483
-0.914428
-0.949188
-0.923015
-0.888255
-0.949188
-0.984936
-0.958763
-0.923015
-0.984936
-1.02167
-0.995498
-0.958763
-1.02167
-1.05939
-1.03322
-0.995498
-1.05939
-1.0981
-1.07193
-1.03322
-1.0981
-1.1378
-1.11163
-1.07193
-1.1378
-1.17849
-1.15232
-1.11163
-1.17849
-1.22016
-1.19399
-1.15232
-1.22016
-1.26282
-1.23665
-1.19399
-1.26282
-1.30647
-1.2803
-1.23665
-1.30647
-1.35111
-1.32494
-1.2803
-1.35111
-1.39673
-1.37056
-1.32494
-1.39673
-1.44335
-1.41717
-1.37056
-1.44335
-1.49095
-1.46477
-1.41717
-1.49095
-1.53953
-1.51336
-1.46477
-1.53953
-1.58911
-1.56294
-1.51336
-1.58911
-1.63967
-1.6135
-1.56294
-1.63967
-1.69122
-1.66505
-1.6135
-1.69122
-1.74376
-1.71759
-1.66505
-1.74376
-1.79728
-1.77111
-1.71759
-1.79728
-1.8518
-1.82562
-1.77111
-1.8518
-1.9073
-1.88113
-1.82562
-1.9073
-1.96379
-1.93761
-1.88113
-1.96379
-2.02126
-1.99509
-1.93761
-2.02126
-2.07973
-2.05355
-1.99509
-2.07973
-2.13918
-2.11301
-2.05355
-2.13918
-2.19962
-2.17344
-2.11301
-2.19962
-2.26104
-2.23487
-2.17344
-2.26104
-2.32346
-2.29729
-2.23487
-2.32346
-2.38686
-2.36069
-2.29729
-2.38686
-2.45125
-2.42508
-2.36069
-2.45125
-2.51663
-2.49046
-2.42508
-2.51663
-2.58299
-2.55682
-2.49046
-2.58299
-2.65035
-2.62417
-2.55682
-2.65035
-2.71869
-2.69251
-2.62417
-2.71869
-2.78801
-2.76184
-2.69251
-2.78801
-2.85833
-2.83216
-2.76184
-2.85833
-2.92963
-2.90346
-2.83216
-2.92963
-3.00192
-2.97575
-2.90346
-3.00192
-3.0752
-3.04903
-2.97575
-3.0752
-3.14947
-3.1233
-3.04903
-3.14947
-3.22472
-3.19855
-3.1233
-3.22472
-3.30096
-3.27479
-3.19855
-3.30096
-3.37819
-3.35202
-3.27479
-3.37819
-3.45641
-3.43024
-3.35202
-3.45641
-3.53562
-3.50944
-3.43024
-3.53562
-3.61581
-3.58963
-3.50944
-3.61581
-3.69699
-3.67081
-3.58963
-3.69699
-3.77916
-3.75298
-3.67081
-3.77916
-3.86231
-3.83614
-3.75298
-3.86231
-3.94645
-3.92028
-3.83614
-3.94645
-4.03158
-4.00541
-3.92028
-4.03158
-4.1177
-4.09153
-4.00541
-4.1177
-4.20481
-4.17863
-4.09153
-4.20481
-4.2929
-4.26673
-4.17863
-4.2929
-4.38198
-4.35581
-4.26673
-4.38198
-4.47205
-4.44588
-4.35581
-4.47205
-4.56311
-4.53693
-4.44588
-4.56311
-4.65515
-4.62898
-4.53693
-4.65515
-4.74818
-4.72201
-4.62898
-4.74818
-4.8422
-4.81603
-4.72201
-4.8422
-4.93721
-4.91104
-4.81603
-4.93721
-5.0332
-5.00703
-4.91104
-0.981082
-0.944731
-0.919546
-0.955897
-0.944731
-0.909368
-0.884183
-0.919546
-0.909368
-0.874992
-0.849807
-0.884183
-0.874992
-0.841604
-0.816419
-0.849807
-0.841604
-0.809204
-0.784019
-0.816419
-0.809204
-0.777791
-0.752606
-0.784019
-0.777791
-0.747366
-0.722181
-0.752606
-0.747366
-0.717929
-0.692743
-0.722181
-0.717929
-0.689479
-0.664294
-0.692743
-0.689479
-0.662017
-0.636832
-0.664294
-0.662017
-0.635542
-0.610357
-0.636832
-0.635542
-0.610056
-0.58487
-0.610357
-0.610056
-0.585556
-0.560371
-0.58487
-0.585556
-0.562045
-0.53686
-0.560371
-0.562045
-0.539521
-0.514336
-0.53686
-0.539521
-0.517985
-0.4928
-0.514336
-0.517985
-0.497436
-0.472251
-0.4928
-0.497436
-0.477875
-0.45269
-0.472251
-0.477875
-0.459302
-0.434117
-0.45269
-0.459302
-0.441717
-0.416531
-0.434117
-0.441717
-0.425119
-0.399934
-0.416531
-0.425119
-0.409509
-0.384323
-0.399934
-0.409509
-0.394886
-0.369701
-0.384323
-0.394886
-0.381251
-0.356066
-0.369701
-0.381251
-0.368604
-0.343418
-0.356066
-0.368604
-0.356944
-0.331759
-0.343418
-0.356944
-0.346272
-0.321087
-0.331759
-0.346272
-0.336588
-0.311403
-0.321087
-0.336588
-0.327891
-0.302706
-0.311403
-0.327891
-0.320182
-0.294997
-0.302706
-0.320182
-0.313461
-0.288275
-0.294997
-0.313461
-0.307727
-0.282542
-0.288275
-0.307727
-0.302981
-0.277796
-0.282542
-0.302981
-0.299222
-0.274037
-0.277796
-0.299222
-0.296452
-0.271267
-0.274037
-0.296452
-0.294669
-0.269483
-0.271267
-0.294669
-0.293873
-0.268688
-0.269483
-0.293873
-0.294065
-0.26888
-0.268688
-0.294065
-0.295245
-0.27006
-0.26888
-0.295245
-0.297413
-0.272228
-0.27006
-0.297413
-0.300568
-0.275383
-0.272228
-0.300568
-0.304711
-0.279526
-0.275383
-0.304711
-0.309841
-0.284656
-0.279526
-0.309841
-0.315959
-0.290774
-0.284656
-0.315959
-0.323065
-0.29788
-0.290774
-0.323065
-0.331159
-0.305974
-0.29788
-0.331159
-0.34024
-0.315055
-0.305974
-0.34024
-0.350309
-0.325123
-0.315055
-0.350309
-0.361365
-0.33618
-0.325123
-0.361365
-0.373409
-0.348224
-0.33618
-0.373409
-0.386441
-0.361256
-0.348224
-0.386441
-0.40046
-0.375275
-0.361256
-0.40046
-0.415467
-0.390282
-0.375275
-0.415467
-0.431462
-0.406277
-0.390282
-0.431462
-0.448444
-0.423259
-0.406277
-0.448444
-0.466414
-0.441229
-0.423259
-0.466414
-0.485372
-0.460187
-0.441229
-0.485372
-0.505317
-0.480132
-0.460187
-0.505317
-0.52625
-0.501065
-0.480132
-0.52625
-0.548171
-0.522985
-0.501065
-0.548171
-0.571079
-0.545894
-0.522985
-0.571079
-0.594975
-0.56979
-0.545894
-0.594975
-0.619858
-0.594673
-0.56979
-0.619858
-0.64573
-0.620544
-0.594673
-0.64573
-0.672589
-0.647403
-0.620544
-0.672589
-0.700435
-0.67525
-0.647403
-0.700435
-0.729269
-0.704084
-0.67525
-0.729269
-0.759091
-0.733906
-0.704084
-0.759091
-0.789901
-0.764715
-0.733906
-0.789901
-0.821698
-0.796513
-0.764715
-0.821698
-0.854483
-0.829297
-0.796513
-0.854483
-0.888255
-0.86307
-0.829297
-0.888255
-0.923015
-0.89783
-0.86307
-0.923015
-0.958763
-0.933578
-0.89783
-0.958763
-0.995498
-0.970313
-0.933578
-0.995498
-1.03322
-1.00804
-0.970313
-1.03322
-1.07193
-1.04675
-1.00804
-1.07193
-1.11163
-1.08645
-1.04675
-1.11163
-1.15232
-1.12713
-1.08645
-1.15232
-1.19399
-1.16881
-1.12713
-1.19399
-1.23665
-1.21147
-1.16881
-1.23665
-1.2803
-1.25512
-1.21147
-1.2803
-1.32494
-1.29975
-1.25512
-1.32494
-1.37056
-1.34538
-1.29975
-1.37056
-1.41717
-1.39199
-1.34538
-1.41717
-1.46477
-1.43959
-1.39199
-1.46477
-1.51336
-1.48818
-1.43959
-1.51336
-1.56294
-1.53775
-1.48818
-1.56294
-1.6135
-1.58831
-1.53775
-1.6135
-1.66505
-1.63986
-1.58831
-1.66505
-1.71759
-1.6924
-1.63986
-1.71759
-1.77111
-1.74593
-1.6924
-1.77111
-1.82562
-1.80044
-1.74593
-1.82562
-1.88113
-1.85594
-1.80044
-1.88113
-1.93761
-1.91243
-1.85594
-1.93761
-1.99509
-1.96991
-1.91243
-1.99509
-2.05355
-2.02837
-1.96991
-2.05355
-2.11301
-2.08782
-2.02837
-2.11301
-2.17344
-2.14826
-2.08782
-2.17344
-2.23487
-2.20969
-2.14826
-2.23487
-2.29729
-2.2721
-2.20969
-2.29729
-2.36069
-2.3355
-2.2721
-2.36069
-2.42508
-2.39989
-2.3355
-2.42508
-2.49046
-2.46527
-2.39989
-2.49046
-2.55682
-2.53164
-2.46527
-2.55682
-2.62417
-2.59899
-2.53164
-2.62417
-2.69251
-2.66733
-2.59899
-2.69251
-2.76184
-2.73666
-2.66733
-2.76184
-2.83216
-2.80697
-2.73666
-2.83216
-2.90346
-2.87828
-2.80697
-2.90346
-2.97575
-2.95057
-2.87828
-2.97575
-3.04903
-3.02384
-2.95057
-3.04903
-3.1233
-3.09811
-3.02384
-3.1233
-3.19855
-3.17337
-3.09811
-3.19855
-3.27479
-3.24961
-3.17337
-3.27479
-3.35202
-3.32684
-3.24961
-3.35202
-3.43024
-3.40505
-3.32684
-3.43024
-3.50944
-3.48426
-3.40505
-3.50944
-3.58963
-3.56445
-3.48426
-3.58963
-3.67081
-3.64563
-3.56445
-3.67081
-3.75298
-3.7278
-3.64563
-3.75298
-3.83614
-3.81095
-3.7278
-3.83614
-3.92028
-3.89509
-3.81095
-3.92028
-4.00541
-3.98023
-3.89509
-4.00541
-4.09153
-4.06634
-3.98023
-4.09153
-4.17863
-4.15345
-4.06634
-4.17863
-4.26673
-4.24154
-4.15345
-4.26673
-4.35581
-4.33062
-4.24154
-4.35581
-4.44588
-4.42069
-4.33062
-4.44588
-4.53693
-4.51175
-4.42069
-4.53693
-4.62898
-4.60379
-4.51175
-4.62898
-4.72201
-4.69682
-4.60379
-4.72201
-4.81603
-4.79084
-4.69682
-4.81603
-4.91104
-4.88585
-4.79084
-4.91104
-5.00703
-4.98185
-4.88585
-0.955897
-0.919546
-0.895349
-0.9317
-0.919546
-0.884183
-0.859985
-0.895349
-0.884183
-0.849807
-0.82561
-0.859985
-0.849807
-0.816419
-0.792222
-0.82561
-0.816419
-0.784019
-0.759821
-0.792222
-0.784019
-0.752606
-0.728408
-0.759821
-0.752606
-0.722181
-0.697983
-0.728408
-0.722181
-0.692743
-0.668546
-0.697983
-0.692743
-0.664294
-0.640096
-0.668546
-0.664294
-0.636832
-0.612634
-0.640096
-0.636832
-0.610357
-0.58616
-0.612634
-0.610357
-0.58487
-0.560673
-0.58616
-0.58487
-0.560371
-0.536174
-0.560673
-0.560371
-0.53686
-0.512662
-0.536174
-0.53686
-0.514336
-0.490138
-0.512662
-0.514336
-0.4928
-0.468602
-0.490138
-0.4928
-0.472251
-0.448054
-0.468602
-0.472251
-0.45269
-0.428493
-0.448054
-0.45269
-0.434117
-0.40992
-0.428493
-0.434117
-0.416531
-0.392334
-0.40992
-0.416531
-0.399934
-0.375736
-0.392334
-0.399934
-0.384323
-0.360126
-0.375736
-0.384323
-0.369701
-0.345503
-0.360126
-0.369701
-0.356066
-0.331868
-0.345503
-0.356066
-0.343418
-0.319221
-0.331868
-0.343418
-0.331759
-0.307561
-0.319221
-0.331759
-0.321087
-0.296889
-0.307561
-0.321087
-0.311403
-0.287205
-0.296889
-0.311403
-0.302706
-0.278508
-0.287205
-0.302706
-0.294997
-0.270799
-0.278508
-0.294997
-0.288275
-0.264078
-0.270799
-0.288275
-0.282542
-0.258344
-0.264078
-0.282542
-0.277796
-0.253598
-0.258344
-0.277796
-0.274037
-0.24984
-0.253598
-0.274037
-0.271267
-0.247069
-0.24984
-0.271267
-0.269483
-0.245286
-0.247069
-0.269483
-0.268688
-0.24449
-0.245286
-0.268688
-0.26888
-0.244683
-0.24449
-0.26888
-0.27006
-0.245863
-0.244683
-0.27006
-0.272228
-0.24803
-0.245863
-0.272228
-0.275383
-0.251185
-0.24803
-0.275383
-0.279526
-0.255328
-0.251185
-0.279526
-0.284656
-0.260459
-0.255328
-0.284656
-0.290774
-0.266577
-0.260459
-0.290774
-0.29788
-0.273683
-0.266577
-0.29788
-0.305974
-0.281776
-0.273683
-0.305974
-0.315055
-0.290857
-0.281776
-0.315055
-0.325123
-0.300926
-0.290857
-0.325123
-0.33618
-0.311982
-0.300926
-0.33618
-0.348224
-0.324026
-0.311982
-0.348224
-0.361256
-0.337058
-0.324026
-0.361256
-0.375275
-0.351077
-0.337058
-0.375275
-0.390282
-0.366084
-0.351077
-0.390282
-0.406277
-0.382079
-0.366084
-0.406277
-0.423259
-0.399061
-0.382079
-0.423259
-0.441229
-0.417031
-0.399061
-0.441229
-0.460187
-0.435989
-0.417031
-0.460187
-0.480132
-0.455934
-0.435989
-0.480132
-0.501065
-0.476867
-0.455934
-0.501065
-0.522985
-0.498788
-0.476867
-0.522985
-0.545894
-0.521696
-0.498788
-0.545894
-0.56979
-0.545592
-0.521696
-0.56979
-0.594673
-0.570476
-0.545592
-0.594673
-0.620544
-0.596347
-0.570476
-0.620544
-0.647403
-0.623206
-0.596347
-0.647403
-0.67525
-0.651052
-0.623206
-0.67525
-0.704084
-0.679887
-0.651052
-0.704084
-0.733906
-0.709708
-0.679887
-0.733906
-0.764715
-0.740518
-0.709708
-0.764715
-0.796513
-0.772315
-0.740518
-0.796513
-0.829297
-0.8051
-0.772315
-0.829297
-0.86307
-0.838872
-0.8051
-0.86307
-0.89783
-0.873632
-0.838872
-0.89783
-0.933578
-0.90938
-0.873632
-0.933578
-0.970313
-0.946116
-0.90938
-0.970313
-1.00804
-0.983839
-0.946116
-1.00804
-1.04675
-1.02255
-0.983839
-1.04675
-1.08645
-1.06225
-1.02255
-1.08645
-1.12713
-1.10293
-1.06225
-1.12713
-1.16881
-1.14461
-1.10293
-1.16881
-1.21147
-1.18727
-1.14461
-1.21147
-1.25512
-1.23092
-1.18727
-1.25512
-1.29975
-1.27555
-1.23092
-1.29975
-1.34538
-1.32118
-1.27555
-1.34538
-1.39199
-1.36779
-1.32118
-1.39199
-1.43959
-1.41539
-1.36779
-1.43959
-1.48818
-1.46398
-1.41539
-1.48818
-1.53775
-1.51355
-1.46398
-1.53775
-1.58831
-1.56412
-1.51355
-1.58831
-1.63986
-1.61567
-1.56412
-1.63986
-1.6924
-1.6682
-1.61567
-1.6924
-1.74593
-1.72173
-1.6682
-1.74593
-1.80044
-1.77624
-1.72173
-1.80044
-1.85594
-1.83174
-1.77624
-1.85594
-1.91243
-1.88823
-1.83174
-1.91243
-1.96991
-1.94571
-1.88823
-1.96991
-2.02837
-2.00417
-1.94571
-2.02837
-2.08782
-2.06362
-2.00417
-2.08782
-2.14826
-2.12406
-2.06362
-2.14826
-2.20969
-2.18549
-2.12406
-2.20969
-2.2721
-2.2479
-2.18549
-2.2721
-2.3355
-2.31131
-2.2479
-2.3355
-2.39989
-2.3757
-2.31131
-2.39989
-2.46527
-2.44107
-2.3757
-2.46527
-2.53164
-2.50744
-2.44107
-2.53164
-2.59899
-2.57479
-2.50744
-2.59899
-2.66733
-2.64313
-2.57479
-2.66733
-2.73666
-2.71246
-2.64313
-2.73666
-2.80697
-2.78277
-2.71246
-2.80697
-2.87828
-2.85408
-2.78277
-2.87828
-2.95057
-2.92637
-2.85408
-2.95057
-3.02384
-2.99965
-2.92637
-3.02384
-3.09811
-3.07391
-2.99965
-3.09811
-3.17337
-3.14917
-3.07391
-3.17337
-3.24961
-3.22541
-3.14917
-3.24961
-3.32684
-3.30264
-3.22541
-3.32684
-3.40505
-3.38086
-3.30264
-3.40505
-3.48426
-3.46006
-3.38086
-3.48426
-3.56445
-3.54025
-3.46006
-3.56445
-3.64563
-3.62143
-3.54025
-3.64563
-3.7278
-3.7036
-3.62143
-3.7278
-3.81095
-3.78675
-3.7036
-3.81095
-3.89509
-3.8709
-3.78675
-3.89509
-3.98023
-3.95603
-3.8709
-3.98023
-4.06634
-4.04215
-3.95603
-4.06634
-4.15345
-4.12925
-4.04215
-4.15345
-4.24154
-4.21735
-4.12925
-4.24154
-4.33062
-4.30643
-4.21735
-4.33062
-4.42069
-4.3965
-4.30643
-4.42069
-4.51175
-4.48755
-4.3965
-4.51175
-4.60379
-4.5796
-4.48755
-4.60379
-4.69682
-4.67263
-4.5796
-4.69682
-4.79084
-4.76665
-4.67263
-4.79084
-4.88585
-4.86165
-4.76665
-4.88585
-4.98185
-4.95765
-4.86165
-0.9317
-0.895349
-0.872139
-0.90849
-0.895349
-0.859985
-0.836775
-0.872139
-0.859985
-0.82561
-0.8024
-0.836775
-0.82561
-0.792222
-0.769012
-0.8024
-0.792222
-0.759821
-0.736611
-0.769012
-0.759821
-0.728408
-0.705199
-0.736611
-0.728408
-0.697983
-0.674773
-0.705199
-0.697983
-0.668546
-0.645336
-0.674773
-0.668546
-0.640096
-0.616886
-0.645336
-0.640096
-0.612634
-0.589424
-0.616886
-0.612634
-0.58616
-0.56295
-0.589424
-0.58616
-0.560673
-0.537463
-0.56295
-0.560673
-0.536174
-0.512964
-0.537463
-0.536174
-0.512662
-0.489452
-0.512964
-0.512662
-0.490138
-0.466928
-0.489452
-0.490138
-0.468602
-0.445392
-0.466928
-0.468602
-0.448054
-0.424844
-0.445392
-0.448054
-0.428493
-0.405283
-0.424844
-0.428493
-0.40992
-0.38671
-0.405283
-0.40992
-0.392334
-0.369124
-0.38671
-0.392334
-0.375736
-0.352526
-0.369124
-0.375736
-0.360126
-0.336916
-0.352526
-0.360126
-0.345503
-0.322293
-0.336916
-0.345503
-0.331868
-0.308658
-0.322293
-0.331868
-0.319221
-0.296011
-0.308658
-0.319221
-0.307561
-0.284351
-0.296011
-0.307561
-0.296889
-0.273679
-0.284351
-0.296889
-0.287205
-0.263995
-0.273679
-0.287205
-0.278508
-0.255298
-0.263995
-0.278508
-0.270799
-0.247589
-0.255298
-0.270799
-0.264078
-0.240868
-0.247589
-0.264078
-0.258344
-0.235134
-0.240868
-0.258344
-0.253598
-0.230388
-0.235134
-0.253598
-0.24984
-0.22663
-0.230388
-0.24984
-0.247069
-0.223859
-0.22663
-0.247069
-0.245286
-0.222076
-0.223859
-0.245286
-0.24449
-0.221281
-0.222076
-0.24449
-0.244683
-0.221473
-0.221281
-0.244683
-0.245863
-0.222653
-0.221473
-0.245863
-0.24803
-0.22482
-0.222653
-0.24803
-0.251185
-0.227975
-0.22482
-0.251185
-0.255328
-0.232118
-0.227975
-0.255328
-0.260459
-0.237249
-0.232118
-0.260459
-0.266577
-0.243367
-0.237249
-0.266577
-0.273683
-0.250473
-0.243367
-0.273683
-0.281776
-0.258566
-0.250473
-0.281776
-0.290857
-0.267647
-0.258566
-0.290857
-0.300926
-0.277716
-0.267647
-0.300926
-0.311982
-0.288772
-0.277716
-0.311982
-0.324026
-0.300816
-0.288772
-0.324026
-0.337058
-0.313848
-0.300816
-0.337058
-0.351077
-0.327868
-0.313848
-0.351077
-0.366084
-0.342875
-0.327868
-0.366084
-0.382079
-0.358869
-0.342875
-0.382079
-0.399061
-0.375852
-0.358869
-0.399061
-0.417031
-0.393822
-0.375852
-0.417031
-0.435989
-0.412779
-0.393822
-0.435989
-0.455934
-0.432725
-0.412779
-0.455934
-0.476867
-0.453657
-0.432725
-0.476867
-0.498788
-0.475578
-0.453657
-0.498788
-0.521696
-0.498486
-0.475578
-0.521696
-0.545592
-0.522382
-0.498486
-0.545592
-0.570476
-0.547266
-0.522382
-0.570476
-0.596347
-0.573137
-0.547266
-0.596347
-0.623206
-0.599996
-0.573137
-0.623206
-0.651052
-0.627842
-0.599996
-0.651052
-0.679887
-0.656677
-0.627842
-0.679887
-0.709708
-0.686499
-0.656677
-0.709708
-0.740518
-0.717308
-0.686499
-0.740518
-0.772315
-0.749105
-0.717308
-0.772315
-0.8051
-0.78189
-0.749105
-0.8051
-0.838872
-0.815662
-0.78189
-0.838872
-0.873632
-0.850423
-0.815662
-0.873632
-0.90938
-0.88617
-0.850423
-0.90938
-0.946116
-0.922906
-0.88617
-0.946116
-0.983839
-0.960629
-0.922906
-0.983839
-1.02255
-0.99934
-0.960629
-1.02255
-1.06225
-1.03904
-0.99934
-1.06225
-1.10293
-1.07972
-1.03904
-1.10293
-1.14461
-1.1214
-1.07972
-1.14461
-1.18727
-1.16406
-1.1214
-1.18727
-1.23092
-1.20771
-1.16406
-1.23092
-1.27555
-1.25234
-1.20771
-1.27555
-1.32118
-1.29797
-1.25234
-1.32118
-1.36779
-1.34458
-1.29797
-1.36779
-1.41539
-1.39218
-1.34458
-1.41539
-1.46398
-1.44077
-1.39218
-1.46398
-1.51355
-1.49034
-1.44077
-1.51355
-1.56412
-1.54091
-1.49034
-1.56412
-1.61567
-1.59246
-1.54091
-1.61567
-1.6682
-1.64499
-1.59246
-1.6682
-1.72173
-1.69852
-1.64499
-1.72173
-1.77624
-1.75303
-1.69852
-1.77624
-1.83174
-1.80853
-1.75303
-1.83174
-1.88823
-1.86502
-1.80853
-1.88823
-1.94571
-1.9225
-1.86502
-1.94571
-2.00417
-1.98096
-1.9225
-2.00417
-2.06362
-2.04041
-1.98096
-2.06362
-2.12406
-2.10085
-2.04041
-2.12406
-2.18549
-2.16228
-2.10085
-2.18549
-2.2479
-2.22469
-2.16228
-2.2479
-2.31131
-2.2881
-2.22469
-2.31131
-2.3757
-2.35249
-2.2881
-2.3757
-2.44107
-2.41786
-2.35249
-2.44107
-2.50744
-2.48423
-2.41786
-2.50744
-2.57479
-2.55158
-2.48423
-2.57479
-2.64313
-2.61992
-2.55158
-2.64313
-2.71246
-2.68925
-2.61992
-2.71246
-2.78277
-2.75956
-2.68925
-2.78277
-2.85408
-2.83087
-2.75956
-2.85408
-2.92637
-2.90316
-2.83087
-2.92637
-2.99965
-2.97644
-2.90316
-2.99965
-3.07391
-3.0507
-2.97644
-3.07391
-3.14917
-3.12596
-3.0507
-3.14917
-3.22541
-3.2022
-3.12596
-3.22541
-3.30264
-3.27943
-3.2022
-3.30264
-3.38086
-3.35765
-3.27943
-3.38086
-3.46006
-3.43685
-3.35765
-3.46006
-3.54025
-3.51704
-3.43685
-3.54025
-3.62143
-3.59822
-3.51704
-3.62143
-3.7036
-3.68039