# vtk DataFile Version 1.0
unstructured Grid
ASCII
DATASET UNSTRUCTURED_GRID
POINTS 23424 float 
0 0	 0.0
0.0222222 0	 0.0
0.0222222 0.0222222	 0.0
0 0.0222222	 0.0
0.0222222 0	 0.0
0.0444444 0	 0.0
0.0444444 0.0222222	 0.0
0.0222222 0.0222222	 0.0
0.0444444 0	 0.0
0.0666667 0	 0.0
0.0666667 0.0222222	 0.0
0.0444444 0.0222222	 0.0
0.0666667 0	 0.0
0.0888889 0	 0.0
0.0888889 0.0222222	 0.0
0.0666667 0.0222222	 0.0
0.0888889 0	 0.0
0.111111 0	 0.0
0.111111 0.0222222	 0.0
0.0888889 0.0222222	 0.0
0.111111 0	 0.0
0.133333 0	 0.0
0.133333 0.0222222	 0.0
0.111111 0.0222222	 0.0
0.133333 0	 0.0
0.155556 0	 0.0
0.155556 0.0222222	 0.0
0.133333 0.0222222	 0.0
0.155556 0	 0.0
0.177778 0	 0.0
0.177778 0.0222222	 0.0
0.155556 0.0222222	 0.0
0.177778 0	 0.0
0.2 0	 0.0
0.2 0.0222222	 0.0
0.177778 0.0222222	 0.0
0.2 0	 0.0
0.222222 0	 0.0
0.222222 0.0222222	 0.0
0.2 0.0222222	 0.0
0.222222 0	 0.0
0.244444 0	 0.0
0.244444 0.0222222	 0.0
0.222222 0.0222222	 0.0
0.244444 0	 0.0
0.266667 0	 0.0
0.266667 0.0222222	 0.0
0.244444 0.0222222	 0.0
0.266667 0	 0.0
0.288889 0	 0.0
0.288889 0.0222222	 0.0
0.266667 0.0222222	 0.0
0.288889 0	 0.0
0.311111 0	 0.0
0.311111 0.0222222	 0.0
0.288889 0.0222222	 0.0
0.311111 0	 0.0
0.333333 0	 0.0
0.333333 0.0222222	 0.0
0.311111 0.0222222	 0.0
0.333333 0	 0.0
0.355556 0	 0.0
0.355556 0.0222222	 0.0
0.333333 0.0222222	 0.0
0.355556 0	 0.0
0.377778 0	 0.0
0.377778 0.0222222	 0.0
0.355556 0.0222222	 0.0
0.377778 0	 0.0
0.4 0	 0.0
0.4 0.0222222	 0.0
0.377778 0.0222222	 0.0
0.4 0	 0.0
0.422222 0	 0.0
0.422222 0.0222222	 0.0
0.4 0.0222222	 0.0
0.422222 0	 0.0
0.444444 0	 0.0
0.444444 0.0222222	 0.0
0.422222 0.0222222	 0.0
0.444444 0	 0.0
0.466667 0	 0.0
0.466667 0.0222222	 0.0
0.444444 0.0222222	 0.0
0.466667 0	 0.0
0.488889 0	 0.0
0.488889 0.0222222	 0.0
0.466667 0.0222222	 0.0
0.488889 0	 0.0
0.511111 0	 0.0
0.511111 0.0222222	 0.0
0.488889 0.0222222	 0.0
0.511111 0	 0.0
0.533333 0	 0.0
0.533333 0.0222222	 0.0
0.511111 0.0222222	 0.0
0.533333 0	 0.0
0.555556 0	 0.0
0.555556 0.0222222	 0.0
0.533333 0.0222222	 0.0
0.555556 0	 0.0
0.577778 0	 0.0
0.577778 0.0222222	 0.0
0.555556 0.0222222	 0.0
0.577778 0	 0.0
0.6 0	 0.0
0.6 0.0222222	 0.0
0.577778 0.0222222	 0.0
0.6 0	 0.0
0.622222 0	 0.0
0.622222 0.0222222	 0.0
0.6 0.0222222	 0.0
0.622222 0	 0.0
0.644444 0	 0.0
0.644444 0.0222222	 0.0
0.622222 0.0222222	 0.0
0.644444 0	 0.0
0.666667 0	 0.0
0.666667 0.0222222	 0.0
0.644444 0.0222222	 0.0
0.666667 0	 0.0
0.688889 0	 0.0
0.688889 0.0222222	 0.0
0.666667 0.0222222	 0.0
0.688889 0	 0.0
0.711111 0	 0.0
0.711111 0.0222222	 0.0
0.688889 0.0222222	 0.0
0.711111 0	 0.0
0.733333 0	 0.0
0.733333 0.0222222	 0.0
0.711111 0.0222222	 0.0
0.733333 0	 0.0
0.755556 0	 0.0
0.755556 0.0222222	 0.0
0.733333 0.0222222	 0.0
0.755556 0	 0.0
0.777778 0	 0.0
0.777778 0.0222222	 0.0
0.755556 0.0222222	 0.0
0.777778 0	 0.0
0.8 0	 0.0
0.8 0.0222222	 0.0
0.777778 0.0222222	 0.0
0.8 0	 0.0
0.822222 0	 0.0
0.822222 0.0222222	 0.0
0.8 0.0222222	 0.0
0.822222 0	 0.0
0.844444 0	 0.0
0.844444 0.0222222	 0.0
0.822222 0.0222222	 0.0
0.844444 0	 0.0
0.866667 0	 0.0
0.866667 0.0222222	 0.0
0.844444 0.0222222	 0.0
0.866667 0	 0.0
0.888889 0	 0.0
0.888889 0.0222222	 0.0
0.866667 0.0222222	 0.0
0.888889 0	 0.0
0.911111 0	 0.0
0.911111 0.0222222	 0.0
0.888889 0.0222222	 0.0
0.911111 0	 0.0
0.933333 0	 0.0
0.933333 0.0222222	 0.0
0.911111 0.0222222	 0.0
0.933333 0	 0.0
0.955556 0	 0.0
0.955556 0.0222222	 0.0
0.933333 0.0222222	 0.0
0.955556 0	 0.0
0.977778 0	 0.0
0.977778 0.0222222	 0.0
0.955556 0.0222222	 0.0
0.977778 0	 0.0
1 0	 0.0
1 0.0222222	 0.0
0.977778 0.0222222	 0.0
1 0	 0.0
1.02222 0	 0.0
1.02222 0.0222222	 0.0
1 0.0222222	 0.0
1.02222 0	 0.0
1.04444 0	 0.0
1.04444 0.0222222	 0.0
1.02222 0.0222222	 0.0
1.04444 0	 0.0
1.06667 0	 0.0
1.06667 0.0222222	 0.0
1.04444 0.0222222	 0.0
1.06667 0	 0.0
1.08889 0	 0.0
1.08889 0.0222222	 0.0
1.06667 0.0222222	 0.0
1.08889 0	 0.0
1.11111 0	 0.0
1.11111 0.0222222	 0.0
1.08889 0.0222222	 0.0
1.11111 0	 0.0
1.13333 0	 0.0
1.13333 0.0222222	 0.0
1.11111 0.0222222	 0.0
1.13333 0	 0.0
1.15556 0	 0.0
1.15556 0.0222222	 0.0
1.13333 0.0222222	 0.0
1.15556 0	 0.0
1.17778 0	 0.0
1.17778 0.0222222	 0.0
1.15556 0.0222222	 0.0
1.17778 0	 0.0
1.2 0	 0.0
1.2 0.0222222	 0.0
1.17778 0.0222222	 0.0
1.2 0	 0.0
1.22222 0	 0.0
1.22222 0.0222222	 0.0
1.2 0.0222222	 0.0
1.22222 0	 0.0
1.24444 0	 0.0
1.24444 0.0222222	 0.0
1.22222 0.0222222	 0.0
1.24444 0	 0.0
1.26667 0	 0.0
1.26667 0.0222222	 0.0
1.24444 0.0222222	 0.0
1.26667 0	 0.0
1.28889 0	 0.0
1.28889 0.0222222	 0.0
1.26667 0.0222222	 0.0
1.28889 0	 0.0
1.31111 0	 0.0
1.31111 0.0222222	 0.0
1.28889 0.0222222	 0.0
1.31111 0	 0.0
1.33333 0	 0.0
1.33333 0.0222222	 0.0
1.31111 0.0222222	 0.0
1.33333 0	 0.0
1.35556 0	 0.0
1.35556 0.0222222	 0.0
1.33333 0.0222222	 0.0
1.35556 0	 0.0
1.37778 0	 0.0
1.37778 0.0222222	 0.0
1.35556 0.0222222	 0.0
1.37778 0	 0.0
1.4 0	 0.0
1.4 0.0222222	 0.0
1.37778 0.0222222	 0.0
1.4 0	 0.0
1.42222 0	 0.0
1.42222 0.0222222	 0.0
1.4 0.0222222	 0.0
1.42222 0	 0.0
1.44444 0	 0.0
1.44444 0.0222222	 0.0
1.42222 0.0222222	 0.0
1.44444 0	 0.0
1.46667 0	 0.0
1.46667 0.0222222	 0.0
1.44444 0.0222222	 0.0
1.46667 0	 0.0
1.48889 0	 0.0
1.48889 0.0222222	 0.0
1.46667 0.0222222	 0.0
1.48889 0	 0.0
1.51111 0	 0.0
1.51111 0.0222222	 0.0
1.48889 0.0222222	 0.0
1.51111 0	 0.0
1.53333 0	 0.0
1.53333 0.0222222	 0.0
1.51111 0.0222222	 0.0
1.53333 0	 0.0
1.55556 0	 0.0
1.55556 0.0222222	 0.0
1.53333 0.0222222	 0.0
1.55556 0	 0.0
1.57778 0	 0.0
1.57778 0.0222222	 0.0
1.55556 0.0222222	 0.0
1.57778 0	 0.0
1.6 0	 0.0
1.6 0.0222222	 0.0
1.57778 0.0222222	 0.0
1.6 0	 0.0
1.62222 0	 0.0
1.62222 0.0222222	 0.0
1.6 0.0222222	 0.0
1.62222 0	 0.0
1.64444 0	 0.0
1.64444 0.0222222	 0.0
1.62222 0.0222222	 0.0
1.64444 0	 0.0
1.66667 0	 0.0
1.66667 0.0222222	 0.0
1.64444 0.0222222	 0.0
1.66667 0	 0.0
1.68889 0	 0.0
1.68889 0.0222222	 0.0
1.66667 0.0222222	 0.0
1.68889 0	 0.0
1.71111 0	 0.0
1.71111 0.0222222	 0.0
1.68889 0.0222222	 0.0
1.71111 0	 0.0
1.73333 0	 0.0
1.73333 0.0222222	 0.0
1.71111 0.0222222	 0.0
1.73333 0	 0.0
1.75556 0	 0.0
1.75556 0.0222222	 0.0
1.73333 0.0222222	 0.0
1.75556 0	 0.0
1.77778 0	 0.0
1.77778 0.0222222	 0.0
1.75556 0.0222222	 0.0
1.77778 0	 0.0
1.8 0	 0.0
1.8 0.0222222	 0.0
1.77778 0.0222222	 0.0
1.8 0	 0.0
1.82222 0	 0.0
1.82222 0.0222222	 0.0
1.8 0.0222222	 0.0
1.82222 0	 0.0
1.84444 0	 0.0
1.84444 0.0222222	 0.0
1.82222 0.0222222	 0.0
1.84444 0	 0.0
1.86667 0	 0.0
1.86667 0.0222222	 0.0
1.84444 0.0222222	 0.0
1.86667 0	 0.0
1.88889 0	 0.0
1.88889 0.0222222	 0.0
1.86667 0.0222222	 0.0
1.88889 0	 0.0
1.91111 0	 0.0
1.91111 0.0222222	 0.0
1.88889 0.0222222	 0.0
1.91111 0	 0.0
1.93333 0	 0.0
1.93333 0.0222222	 0.0
1.91111 0.0222222	 0.0
1.93333 0	 0.0
1.95556 0	 0.0
1.95556 0.0222222	 0.0
1.93333 0.0222222	 0.0
1.95556 0	 0.0
1.97778 0	 0.0
1.97778 0.0222222	 0.0
1.95556 0.0222222	 0.0
1.97778 0	 0.0
2 0	 0.0
2 0.0222222	 0.0
1.97778 0.0222222	 0.0
2 0	 0.0
2.02222 0	 0.0
2.02222 0.0222222	 0.0
2 0.0222222	 0.0
2.02222 0	 0.0
2.04444 0	 0.0
2.04444 0.0222222	 0.0
2.02222 0.0222222	 0.0
2.04444 0	 0.0
2.06667 0	 0.0
2.06667 0.0222222	 0.0
2.04444 0.0222222	 0.0
2.06667 0	 0.0
2.08889 0	 0.0
2.08889 0.0222222	 0.0
2.06667 0.0222222	 0.0
2.08889 0	 0.0
2.11111 0	 0.0
2.11111 0.0222222	 0.0
2.08889 0.0222222	 0.0
2.11111 0	 0.0
2.13333 0	 0.0
2.13333 0.0222222	 0.0
2.11111 0.0222222	 0.0
2.13333 0	 0.0
2.15556 0	 0.0
2.15556 0.0222222	 0.0
2.13333 0.0222222	 0.0
2.15556 0	 0.0
2.17778 0	 0.0
2.17778 0.0222222	 0.0
2.15556 0.0222222	 0.0
2.17778 0	 0.0
2.2 0	 0.0
2.2 0.0222222	 0.0
2.17778 0.0222222	 0.0
2.2 0	 0.0
2.22222 0	 0.0
2.22222 0.0222222	 0.0
2.2 0.0222222	 0.0
2.22222 0	 0.0
2.24444 0	 0.0
2.24444 0.0222222	 0.0
2.22222 0.0222222	 0.0
2.24444 0	 0.0
2.26667 0	 0.0
2.26667 0.0222222	 0.0
2.24444 0.0222222	 0.0
2.26667 0	 0.0
2.28889 0	 0.0
2.28889 0.0222222	 0.0
2.26667 0.0222222	 0.0
2.28889 0	 0.0
2.31111 0	 0.0
2.31111 0.0222222	 0.0
2.28889 0.0222222	 0.0
2.31111 0	 0.0
2.33333 0	 0.0
2.33333 0.0222222	 0.0
2.31111 0.0222222	 0.0
2.33333 0	 0.0
2.35556 0	 0.0
2.35556 0.0222222	 0.0
2.33333 0.0222222	 0.0
2.35556 0	 0.0
2.37778 0	 0.0
2.37778 0.0222222	 0.0
2.35556 0.0222222	 0.0
2.37778 0	 0.0
2.4 0	 0.0
2.4 0.0222222	 0.0
2.37778 0.0222222	 0.0
2.4 0	 0.0
2.42222 0	 0.0
2.42222 0.0222222	 0.0
2.4 0.0222222	 0.0
2.42222 0	 0.0
2.44444 0	 0.0
2.44444 0.0222222	 0.0
2.42222 0.0222222	 0.0
2.44444 0	 0.0
2.46667 0	 0.0
2.46667 0.0222222	 0.0
2.44444 0.0222222	 0.0
2.46667 0	 0.0
2.48889 0	 0.0
2.48889 0.0222222	 0.0
2.46667 0.0222222	 0.0
2.48889 0	 0.0
2.51111 0	 0.0
2.51111 0.0222222	 0.0
2.48889 0.0222222	 0.0
2.51111 0	 0.0
2.53333 0	 0.0
2.53333 0.0222222	 0.0
2.51111 0.0222222	 0.0
2.53333 0	 0.0
2.55556 0	 0.0
2.55556 0.0222222	 0.0
2.53333 0.0222222	 0.0
2.55556 0	 0.0
2.57778 0	 0.0
2.57778 0.0222222	 0.0
2.55556 0.0222222	 0.0
2.57778 0	 0.0
2.6 0	 0.0
2.6 0.0222222	 0.0
2.57778 0.0222222	 0.0
2.6 0	 0.0
2.62222 0	 0.0
2.62222 0.0222222	 0.0
2.6 0.0222222	 0.0
2.62222 0	 0.0
2.64444 0	 0.0
2.64444 0.0222222	 0.0
2.62222 0.0222222	 0.0
2.64444 0	 0.0
2.66667 0	 0.0
2.66667 0.0222222	 0.0
2.64444 0.0222222	 0.0
2.66667 0	 0.0
2.68889 0	 0.0
2.68889 0.0222222	 0.0
2.66667 0.0222222	 0.0
2.68889 0	 0.0
2.71111 0	 0.0
2.71111 0.0222222	 0.0
2.68889 0.0222222	 0.0
2.71111 0	 0.0
2.73333 0	 0.0
2.73333 0.0222222	 0.0
2.71111 0.0222222	 0.0
2.73333 0	 0.0
2.75556 0	 0.0
2.75556 0.0222222	 0.0
2.73333 0.0222222	 0.0
2.75556 0	 0.0
2.77778 0	 0.0
2.77778 0.0222222	 0.0
2.75556 0.0222222	 0.0
2.77778 0	 0.0
2.8 0	 0.0
2.8 0.0222222	 0.0
2.77778 0.0222222	 0.0
2.8 0	 0.0
2.82222 0	 0.0
2.82222 0.0222222	 0.0
2.8 0.0222222	 0.0
2.82222 0	 0.0
2.84444 0	 0.0
2.84444 0.0222222	 0.0
2.82222 0.0222222	 0.0
2.84444 0	 0.0
2.86667 0	 0.0
2.86667 0.0222222	 0.0
2.84444 0.0222222	 0.0
2.86667 0	 0.0
2.88889 0	 0.0
2.88889 0.0222222	 0.0
2.86667 0.0222222	 0.0
2.88889 0	 0.0
2.91111 0	 0.0
2.91111 0.0222222	 0.0
2.88889 0.0222222	 0.0
2.91111 0	 0.0
[...]
POINT_DATA 23424
SCALARS levelset_first float
LOOKUP_TABLE default
-5.40453
-5.3048
-5.27863
-5.37836
-5.3048
-5.20607
-5.1799
-5.27863
-5.20607
-5.10832
-5.08215
-5.1799
-5.10832
-5.01156
-4.98539
-5.08215
-5.01156
-4.91579
-4.88961
-4.98539
-4.91579
-4.821
-4.79483
-4.88961
-4.821
-4.7272
-4.70103
-4.79483
-4.7272
-4.63439
-4.60822
-4.70103
-4.63439
-4.54257
-4.5164
-4.60822
-4.54257
-4.45174
-4.42557
-4.5164
-4.45174
-4.36189
-4.33572
-4.42557
-4.36189
-4.27303
-4.24686
-4.33572
-4.27303
-4.18516
-4.15899
-4.24686
-4.18516
-4.09828
-4.0721
-4.15899
-4.09828
-4.01238
-3.98621
-4.0721
-4.01238
-3.92747
-3.9013
-3.98621
-3.92747
-3.84355
-3.81738
-3.9013
-3.84355
-3.76062
-3.73444
-3.81738
-3.76062
-3.67867
-3.6525
-3.73444
-3.67867
-3.59771
-3.57154
-3.6525
-3.59771
-3.51774
-3.49157
-3.57154
-3.51774
-3.43876
-3.41259
-3.49157
-3.43876
-3.36076
-3.33459
-3.41259
-3.36076
-3.28376
-3.25758
-3.33459
-3.28376
-3.20774
-3.18156
-3.25758
-3.20774
-3.13271
-3.10653
-3.18156
-3.13271
-3.05866
-3.03249
-3.10653
-3.05866
-2.9856
-2.95943
-3.03249
-2.9856
-2.91353
-2.88736
-2.95943
-2.91353
-2.84245
-2.81628
-2.88736
-2.84245
-2.77236
-2.74619
-2.81628
-2.77236
-2.70325
-2.67708
-2.74619
-2.70325
-2.63513
-2.60896
-2.67708
-2.63513
-2.568
-2.54183
-2.60896
-2.568
-2.50186
-2.47569
-2.54183
-2.50186
-2.4367
-2.41053
-2.47569
-2.4367
-2.37254
-2.34636
-2.41053
-2.37254
-2.30936
-2.28318
-2.34636
-2.30936
-2.24716
-2.22099
-2.28318
-2.24716
-2.18596
-2.15979
-2.22099
-2.18596
-2.12574
-2.09957
-2.15979
-2.12574
-2.06651
-2.04034
-2.09957
-2.06651
-2.00827
-1.9821
-2.04034
-2.00827
-1.95102
-1.92484
-1.9821
-1.95102
-1.89475
-1.86858
-1.92484
-1.89475
-1.83947
-1.8133
-1.86858
-1.83947
-1.78518
-1.75901
-1.8133
-1.78518
-1.73187
-1.7057
-1.75901
-1.73187
-1.67956
-1.65339
-1.7057
-1.67956
-1.62823
-1.60206
-1.65339
-1.62823
-1.57789
-1.55172
-1.60206
-1.57789
-1.52854
-1.50236
-1.55172
-1.52854
-1.48017
-1.454
-1.50236
-1.48017
-1.43279
-1.40662
-1.454
-1.43279
-1.3864
-1.36023
-1.40662
-1.3864
-1.341
-1.31483
-1.36023
-1.341
-1.29659
-1.27041
-1.31483
-1.29659
-1.25316
-1.22699
-1.27041
-1.25316
-1.21072
-1.18455
-1.22699
-1.21072
-1.16927
-1.14309
-1.18455
-1.16927
-1.1288
-1.10263
-1.14309
-1.1288
-1.08933
-1.06315
-1.10263
-1.08933
-1.05084
-1.02466
-1.06315
-1.05084
-1.01334
-0.987163
-1.02466
-1.01334
-0.976822
-0.950649
-0.987163
-0.976822
-0.941296
-0.915123
-0.950649
-0.941296
-0.906758
-0.880585
-0.915123
-0.906758
-0.873207
-0.847034
-0.880585
-0.873207
-0.840644
-0.814471
-0.847034
-0.840644
-0.809069
-0.782896
-0.814471
-0.809069
-0.778481
-0.752308
-0.782896
-0.778481
-0.748881
-0.722708
-0.752308
-0.748881
-0.720268
-0.694096
-0.722708
-0.720268
-0.692644
-0.666471
-0.694096
-0.692644
-0.666007
-0.639834
-0.666471
-0.666007
-0.640357
-0.614184
-0.639834
-0.640357
-0.615695
-0.589523
-0.614184
-0.615695
-0.592021
-0.565848
-0.589523
-0.592021
-0.569335
-0.543162
-0.565848
-0.569335
-0.547636
-0.521463
-0.543162
-0.547636
-0.526925
-0.500752
-0.521463
-0.526925
-0.507201
-0.481028
-0.500752
-0.507201
-0.488465
-0.462293
-0.481028
-0.488465
-0.470717
-0.444544
-0.462293
-0.470717
-0.453957
-0.427784
-0.444544
-0.453957
-0.438184
-0.412011
-0.427784
-0.438184
-0.423399
-0.397226
-0.412011
-0.423399
-0.409601
-0.383428
-0.397226
-0.409601
-0.396791
-0.370618
-0.383428
-0.396791
-0.384969
-0.358796
-0.370618
-0.384969
-0.374134
-0.347961
-0.358796
-0.374134
-0.364287
-0.338114
-0.347961
-0.364287
-0.355428
-0.329255
-0.338114
-0.355428
-0.347556
-0.321383
-0.329255
-0.347556
-0.340672
-0.314499
-0.321383
-0.340672
-0.334776
-0.308603
-0.314499
-0.334776
-0.329867
-0.303694
-0.308603
-0.329867
-0.325946
-0.299773
-0.303694
-0.325946
-0.323013
-0.29684
-0.299773
-0.323013
-0.321067
-0.294894
-0.29684
-0.321067
-0.320109
-0.293936
-0.294894
-0.320109
-0.320139
-0.293966
-0.293936
-0.320139
-0.321156
-0.294983
-0.293966
-0.321156
-0.323161
-0.296988
-0.294983
-0.323161
-0.326153
-0.299981
-0.296988
-0.326153
-0.330134
-0.303961
-0.299981
-0.330134
-0.335101
-0.308929
-0.303961
-0.335101
-0.341057
-0.314884
-0.308929
-0.341057
-0.348
-0.321827
-0.314884
-0.348
-0.355931
-0.329758
-0.321827
-0.355931
-0.364849
-0.338677
-0.329758
-0.364849
-0.374756
-0.348583
-0.338677
-0.374756
-0.385649
-0.359476
-0.348583
-0.385649
-0.397531
-0.371358
-0.359476
-0.397531
-0.4104
-0.384227
-0.371358
-0.4104
-0.424257
-0.398084
-0.384227
-0.424257
-0.439101
-0.412928
-0.398084
-0.439101
-0.454933
-0.42876
-0.412928
-0.454933
-0.471753
-0.44558
-0.42876
-0.471753
-0.48956
-0.463387
-0.44558
-0.48956
-0.508355
-0.482182
-0.463387
-0.508355
-0.528138
-0.501965
-0.482182
-0.528138
-0.548908
-0.522735
-0.501965
-0.548908
-0.570666
-0.544493
-0.522735
-0.570666
-0.593412
-0.567239
-0.544493
-0.593412
-0.617145
-0.590972
-0.567239
-0.617145
-0.641866
-0.615693
-0.590972
-0.641866
-0.667575
-0.641402
-0.615693
-0.667575
-0.694271
-0.668098
-0.641402
-0.694271
-0.721955
-0.695782
-0.668098
-0.721955
-0.750626
-0.724453
-0.695782
-0.750626
-0.780285
-0.754113
-0.724453
-0.780285
-0.810932
-0.78476
-0.754113
-0.810932
-0.842567
-0.816394
-0.78476
-0.842567
-0.875189
-0.849016
-0.816394
-5.37836
-5.27863
-5.25345
-5.35317
-5.27863
-5.1799
-5.15471
-5.25345
-5.1799
-5.08215
-5.05696
-5.15471
-5.08215
-4.98539
-4.9602
-5.05696
-4.98539
-4.88961
-4.86443
-4.9602
-4.88961
-4.79483
-4.76964
-4.86443
-4.79483
-4.70103
-4.67585
-4.76964
-4.70103
-4.60822
-4.58304
-4.67585
-4.60822
-4.5164
-4.49121
-4.58304
-4.5164
-4.42557
-4.40038
-4.49121
-4.42557
-4.33572
-4.31053
-4.40038
-4.33572
-4.24686
-4.22167
-4.31053
-4.24686
-4.15899
-4.1338
-4.22167
-4.15899
-4.0721
-4.04692
-4.1338
-4.0721
-3.98621
-3.96102
-4.04692
-3.98621
-3.9013
-3.87611
-3.96102
-3.9013
-3.81738
-3.79219
-3.87611
-3.81738
-3.73444
-3.70926
-3.79219
-3.73444
-3.6525
-3.62731
-3.70926
-3.6525
-3.57154
-3.54635
-3.62731
-3.57154
-3.49157
-3.46638
-3.54635
-3.49157
-3.41259
-3.3874
-3.46638
-3.41259
-3.33459
-3.30941
-3.3874
-3.33459
-3.25758
-3.2324
-3.30941
-3.25758
-3.18156
-3.15638
-3.2324
-3.18156
-3.10653
-3.08135
-3.15638
-3.10653
-3.03249
-3.0073
-3.08135
-3.03249
-2.95943
-2.93425
-3.0073
-2.95943
-2.88736
-2.86218
-2.93425
-2.88736
-2.81628
-2.79109
-2.86218
-2.81628
-2.74619
-2.721
-2.79109
-2.74619
-2.67708
-2.65189
-2.721
-2.67708
-2.60896
-2.58378
-2.65189
-2.60896
-2.54183
-2.51665
-2.58378
-2.54183
-2.47569
-2.4505
-2.51665
-2.47569
-2.41053
-2.38535
-2.4505
-2.41053
-2.34636
-2.32118
-2.38535
-2.34636
-2.28318
-2.258
-2.32118
-2.28318
-2.22099
-2.19581
-2.258
-2.22099
-2.15979
-2.1346
-2.19581
-2.15979
-2.09957
-2.07438
-2.1346
-2.09957
-2.04034
-2.01515
-2.07438
-2.04034
-1.9821
-1.95691
-2.01515
-1.9821
-1.92484
-1.89966
-1.95691
-1.92484
-1.86858
-1.84339
-1.89966
-1.86858
-1.8133
-1.78811
-1.84339
-1.8133
-1.75901
-1.73382
-1.78811
-1.75901
-1.7057
-1.68052
-1.73382
-1.7057
-1.65339
-1.6282
-1.68052
-1.65339
-1.60206
-1.57687
-1.6282
-1.60206
-1.55172
-1.52653
-1.57687
-1.55172
-1.50236
-1.47718
-1.52653
-1.50236
-1.454
-1.42881
-1.47718
-1.454
-1.40662
-1.38143
-1.42881
-1.40662
-1.36023
-1.33504
-1.38143
-1.36023
-1.31483
-1.28964
-1.33504
-1.31483
-1.27041
-1.24523
-1.28964
-1.27041
-1.22699
-1.2018
-1.24523
-1.22699
-1.18455
-1.15936
-1.2018
-1.18455
-1.14309
-1.11791
-1.15936
-1.14309
-1.10263
-1.07744
-1.11791
-1.10263
-1.06315
-1.03797
-1.07744
-1.06315
-1.02466
-0.999479
-1.03797
-1.02466
-0.987163
-0.961977
-0.999479
-0.987163
-0.950649
-0.925464
-0.961977
-0.950649
-0.915123
-0.889938
-0.925464
-0.915123
-0.880585
-0.8554
-0.889938
-0.880585
-0.847034
-0.821849
-0.8554
-0.847034
-0.814471
-0.789286
-0.821849
-0.814471
-0.782896
-0.75771
-0.789286
-0.782896
-0.752308
-0.727123
-0.75771
-0.752308
-0.722708
-0.697523
-0.727123
-0.722708
-0.694096
-0.66891
-0.697523
-0.694096
-0.666471
-0.641286
-0.66891
-0.666471
-0.639834
-0.614649
-0.641286
-0.639834
-0.614184
-0.588999
-0.614649
-0.614184
-0.589523
-0.564337
-0.588999
-0.589523
-0.565848
-0.540663
-0.564337
-0.565848
-0.543162
-0.517977
-0.540663
-0.543162
-0.521463
-0.496278
-0.517977
-0.521463
-0.500752
-0.475567
-0.496278
-0.500752
-0.481028
-0.455843
-0.475567
-0.481028
-0.462293
-0.437107
-0.455843
-0.462293
-0.444544
-0.419359
-0.437107
-0.444544
-0.427784
-0.402599
-0.419359
-0.427784
-0.412011
-0.386826
-0.402599
-0.412011
-0.397226
-0.372041
-0.386826
-0.397226
-0.383428
-0.358243
-0.372041
-0.383428
-0.370618
-0.345433
-0.358243
-0.370618
-0.358796
-0.333611
-0.345433
-0.358796
-0.347961
-0.322776
-0.333611
-0.347961
-0.338114
-0.312929
-0.322776
-0.338114
-0.329255
-0.30407
-0.312929
-0.329255
-0.321383
-0.296198
-0.30407
-0.321383
-0.314499
-0.289314
-0.296198
-0.314499
-0.308603
-0.283418
-0.289314
-0.308603
-0.303694
-0.278509
-0.283418
-0.303694
-0.299773
-0.274588
-0.278509
-0.299773
-0.29684
-0.271655
-0.274588
-0.29684
-0.294894
-0.269709
-0.271655
-0.294894
-0.293936
-0.268751
-0.269709
-0.293936
-0.293966
-0.268781
-0.268751
-0.293966
-0.294983
-0.269798
-0.268781
-0.294983
-0.296988
-0.271803
-0.269798
-0.296988
-0.299981
-0.274795
-0.271803
-0.299981
-0.303961
-0.278776
-0.274795
-0.303961
-0.308929
-0.283743
-0.278776
-0.308929
-0.314884
-0.289699
-0.283743
-0.314884
-0.321827
-0.296642
-0.289699
-0.321827
-0.329758
-0.304573
-0.296642
-0.329758
-0.338677
-0.313491
-0.304573
-0.338677
-0.348583
-0.323398
-0.313491
-0.348583
-0.359476
-0.334291
-0.323398
-0.359476
-0.371358
-0.346173
-0.334291
-0.371358
-0.384227
-0.359042
-0.346173
-0.384227
-0.398084
-0.372899
-0.359042
-0.398084
-0.412928
-0.387743
-0.372899
-0.412928
-0.42876
-0.403575
-0.387743
-0.42876
-0.44558
-0.420395
-0.403575
-0.44558
-0.463387
-0.438202
-0.420395
-0.463387
-0.482182
-0.456997
-0.438202
-0.482182
-0.501965
-0.47678
-0.456997
-0.501965
-0.522735
-0.49755
-0.47678
-0.522735
-0.544493
-0.519308
-0.49755
-0.544493
-0.567239
-0.542054
-0.519308
-0.567239
-0.590972
-0.565787
-0.542054
-0.590972
-0.615693
-0.590508
-0.565787
-0.615693
-0.641402
-0.616217
-0.590508
-0.641402
-0.668098
-0.642913
-0.616217
-0.668098
-0.695782
-0.670597
-0.642913
-0.695782
-0.724453
-0.699268
-0.670597
-0.724453
-0.754113
-0.728927
-0.699268
-0.754113
-0.78476
-0.759574
-0.728927
-0.78476
-0.816394
-0.791209
-0.759574
-0.816394
-0.849016
-0.823831
-0.791209
-5.35317
-5.25345
-5.22925
-5.32897
-5.25345
-5.15471
-5.13051
-5.22925
-5.15471
-5.05696
-5.03277
-5.13051
-5.05696
-4.9602
-4.936
-5.03277
-4.9602
-4.86443
-4.84023
-4.936
-4.86443
-4.76964
-4.74545
-4.84023
-4.76964
-4.67585
-4.65165
-4.74545
-4.67585
-4.58304
-4.55884
-4.65165
-4.58304
-4.49121
-4.46702
-4.55884
-4.49121
-4.40038
-4.37618
-4.46702
-4.40038
-4.31053
-4.28634
-4.37618
-4.31053
-4.22167
-4.19748
-4.28634
-4.22167
-4.1338
-4.1096
-4.19748
-4.1338
-4.04692
-4.02272
-4.1096
-4.04692
-3.96102
-3.93682
-4.02272
-3.96102
-3.87611
-3.85192
-3.93682
-3.87611
-3.79219
-3.76799
-3.85192
-3.79219
-3.70926
-3.68506
-3.76799
-3.70926
-3.62731
-3.60312
-3.68506
-3.62731
-3.54635
-3.52216
-3.60312
-3.54635
-3.46638
-3.44219
-3.52216
-3.46638
-3.3874
-3.3632
-3.44219
-3.3874
-3.30941
-3.28521
-3.3632
-3.30941
-3.2324
-3.2082
-3.28521
-3.2324
-3.15638
-3.13218
-3.2082
-3.15638
-3.08135
-3.05715
-3.13218
-3.08135
-3.0073
-2.98311
-3.05715
-3.0073
-2.93425
-2.91005
-2.98311
-2.93425
-2.86218
-2.83798
-2.91005
-2.86218
-2.79109
-2.7669
-2.83798
-2.79109
-2.721
-2.6968
-2.7669
-2.721
-2.65189
-2.6277
-2.6968
-2.65189
-2.58378
-2.55958
-2.6277
-2.58378
-2.51665
-2.49245
-2.55958
-2.51665
-2.4505
-2.4263
-2.49245
-2.4505
-2.38535
-2.36115
-2.4263
-2.38535
-2.32118
-2.29698
-2.36115
-2.32118
-2.258
-2.2338
-2.29698
-2.258
-2.19581
-2.17161
-2.2338
-2.19581
-2.1346
-2.1104
-2.17161
-2.1346
-2.07438
-2.05019
-2.1104
-2.07438
-2.01515
-1.99096
-2.05019
-2.01515
-1.95691
-1.93271
-1.99096
-1.95691
-1.89966
-1.87546
-1.93271
-1.89966
-1.84339
-1.81919
-1.87546
-1.84339
-1.78811
-1.76391
-1.81919
-1.78811
-1.73382
-1.70962
-1.76391
-1.73382
-1.68052
-1.65632
-1.70962
-1.68052
-1.6282
-1.604
-1.65632
-1.6282
-1.57687
-1.55267
-1.604
-1.57687
-1.52653
-1.50233
-1.55267
-1.52653
-1.47718
-1.45298
-1.50233
-1.47718
-1.42881
-1.40461
-1.45298
-1.42881
-1.38143
-1.35724
-1.40461
-1.38143
-1.33504
-1.31085
-1.35724
-1.33504
-1.28964
-1.26544
-1.31085
-1.28964
-1.24523
-1.22103
-1.26544
-1.24523
-1.2018
-1.1776
-1.22103
-1.2018
-1.15936
-1.13516
-1.1776
-1.15936
-1.11791
-1.09371
-1.13516
-1.11791
-1.07744
-1.05325
-1.09371
-1.07744
-1.03797
-1.01377
-1.05325
-1.03797
-0.999479
-0.975281
-1.01377
-0.999479
-0.961977
-0.93778
-0.975281
-0.961977
-0.925464
-0.901266
-0.93778
-0.925464
-0.889938
-0.86574
-0.901266
-0.889938
-0.8554
-0.831202
-0.86574
-0.8554
-0.821849
-0.797651
-0.831202
-0.821849
-0.789286
-0.765088
-0.797651
-0.789286
-0.75771
-0.733513
-0.765088
-0.75771
-0.727123
-0.702925
-0.733513
-0.727123
-0.697523
-0.673325
-0.702925
-0.697523
-0.66891
-0.644713
-0.673325
-0.66891
-0.641286
-0.617088
-0.644713
-0.641286
-0.614649
-0.590451
-0.617088
-0.614649
-0.588999
-0.564802
-0.590451
-0.588999
-0.564337
-0.54014
-0.564802
-0.564337
-0.540663
-0.516466
-0.54014
-0.540663
-0.517977
-0.493779
-0.516466
-0.517977
-0.496278
-0.47208
-0.493779
-0.496278
-0.475567
-0.451369
-0.47208
-0.475567
-0.455843
-0.431646
-0.451369
-0.455843
-0.437107
-0.41291
-0.431646
-0.437107
-0.419359
-0.395162
-0.41291
-0.419359
-0.402599
-0.378401
-0.395162
-0.402599
-0.386826
-0.362628
-0.378401
-0.386826
-0.372041
-0.347843
-0.362628
-0.372041
-0.358243
-0.334045
-0.347843
-0.358243
-0.345433
-0.321236
-0.334045
-0.345433
-0.333611
-0.309413
-0.321236
-0.333611
-0.322776
-0.298579
-0.309413
-0.322776
-0.312929
-0.288732
-0.298579
-0.312929
-0.30407
-0.279872
-0.288732
-0.30407
-0.296198
-0.272001
-0.279872
-0.296198
-0.289314
-0.265117
-0.272001
-0.289314
-0.283418
-0.25922
-0.265117
-0.283418
-0.278509
-0.254312
-0.25922
-0.278509
-0.274588
-0.250391
-0.254312
-0.274588
-0.271655
-0.247457
-0.250391
-0.271655
-0.269709
-0.245512
-0.247457
-0.269709
-0.268751
-0.244554
-0.245512
-0.268751
-0.268781
-0.244583
-0.244554
-0.268781
-0.269798
-0.2456
-0.244583
-0.269798
-0.271803
-0.247605
-0.2456
-0.271803
-0.274795
-0.250598
-0.247605
-0.274795
-0.278776
-0.254578
-0.250598
-0.278776
-0.283743
-0.259546
-0.254578
-0.283743
-0.289699
-0.265501
-0.259546
-0.289699
-0.296642
-0.272445
-0.265501
-0.296642
-0.304573
-0.280375
-0.272445
-0.304573
-0.313491
-0.289294
-0.280375
-0.313491
-0.323398
-0.2992
-0.289294
-0.323398
-0.334291
-0.310094
-0.2992
-0.334291
-0.346173
-0.321975
-0.310094
-0.346173
-0.359042
-0.334844
-0.321975
-0.359042
-0.372899
-0.348701
-0.334844
-0.372899
-0.387743
-0.363545
-0.348701
-0.387743
-0.403575
-0.379377
-0.363545
-0.403575
-0.420395
-0.396197
-0.379377
-0.420395
-0.438202
-0.414005
-0.396197
-0.438202
-0.456997
-0.4328
-0.414005
-0.456997
-0.47678
-0.452582
-0.4328
-0.47678
-0.49755
-0.473353
-0.452582
-0.49755
-0.519308
-0.495111
-0.473353
-0.519308
-0.542054
-0.517856
-0.495111
-0.542054
-0.565787
-0.541589
-0.517856
-0.565787
-0.590508
-0.56631
-0.541589
-0.590508
-0.616217
-0.592019
-0.56631
-0.616217
-0.642913
-0.618715
-0.592019
-0.642913
-0.670597
-0.646399
-0.618715
-0.670597
-0.699268
-0.675071
-0.646399
-0.699268
-0.728927
-0.70473
-0.675071
-0.728927
-0.759574
-0.735377
-0.70473
-0.759574
-0.791209
-0.767011
-0.735377
-0.791209
-0.823831
-0.799634
-0.767011
-5.32897
-5.22925
-5.20604
-5.30576
-5.22925
-5.13051
-5.1073
-5.20604
-5.13051
-5.03277
-5.00956
-5.1073
-5.03277
-4.936
-4.91279
-5.00956
-4.936
-4.84023
-4.81702
-4.91279
-4.84023
-4.74545
-4.72224
-4.81702
-4.74545
-4.65165
-4.62844
-4.72224
-4.65165
-4.55884
-4.53563
-4.62844
-4.55884
-4.46702
-4.44381
-4.53563
-4.46702
-4.37618
-4.35297
-4.44381
-4.37618
-4.28634
-4.26313
-4.35297
-4.28634
-4.19748
-4.17427
-4.26313
-4.19748
-4.1096
-4.08639
-4.17427
-4.1096
-4.02272
-3.99951
-4.08639
-4.02272
-3.93682
-3.91361
-3.99951
-3.93682
-3.85192
-3.82871
-3.91361
-3.85192
-3.76799
-3.74478
-3.82871
-3.76799
-3.68506
-3.66185
-3.74478
-3.68506
-3.60312
-3.57991
-3.66185
-3.60312
-3.52216
-3.49895
-3.57991
-3.52216
-3.44219
-3.41898
-3.49895
-3.44219
-3.3632
-3.33999
-3.41898
-3.3632
-3.28521
-3.262
-3.33999
-3.28521
-3.2082
-3.18499
-3.262
-3.2082
-3.13218
-3.10897
-3.18499
-3.13218
-3.05715
-3.03394
-3.10897
-3.05715
-2.98311
-2.9599
-3.03394
-2.98311
-2.91005
-2.88684
-2.9599
-2.91005
-2.83798
-2.81477
-2.88684
-2.83798
-2.7669
-2.74369
-2.81477
-2.7669
-2.6968
-2.67359
-2.74369
-2.6968
-2.6277
-2.60449
-2.67359
-2.6277
-2.55958
-2.53637
-2.60449
-2.55958
-2.49245
-2.46924
-2.53637
-2.49245
-2.4263
-2.40309
-2.46924
-2.4263
-2.36115
-2.33794
-2.40309
-2.36115
-2.29698
-2.27377
-2.33794
-2.29698
-2.2338
-2.21059
-2.27377
-2.2338
-2.17161
-2.1484
-2.21059
-2.17161
-2.1104
-2.08719
-2.1484
-2.1104
-2.05019
-2.02698
-2.08719
-2.05019
-1.99096
-1.96775
-2.02698
-1.99096
-1.93271
-1.9095
-1.96775
-1.93271
-1.87546
-1.85225
-1.9095
-1.87546
-1.81919
-1.79598
-1.85225
-1.81919
-1.76391
-1.7407
-1.79598
-1.76391
-1.70962
-1.68641
-1.7407
-1.70962
-1.65632
-1.63311
-1.68641
-1.65632
-1.604
-1.58079
-1.63311
-1.604
-1.55267
-1.52946
-1.58079
-1.55267
-1.50233
-1.47912
-1.52946
-1.50233
-1.45298
-1.42977
-1.47912
-1.45298
-1.40461
-1.38141
-1.42977
-1.40461
-1.35724
-1.33403
-1.38141
-1.35724
-1.31085
-1.28764
-1.33403
-1.31085
-1.26544
-1.24223
-1.28764
-1.26544
-1.22103
-1.19782
-1.24223
-1.22103
-1.1776
-1.15439
-1.19782
-1.1776
-1.13516
-1.11195
-1.15439
-1.13516
-1.09371
-1.0705
-1.11195
-1.09371
-1.05325
-1.03004
-1.0705
-1.05325
-1.01377
-0.99056
-1.03004
-1.01377
-0.975281
-0.952071
-0.99056
-0.975281
-0.93778
-0.91457
-0.952071
-0.93778
-0.901266
-0.878056
-0.91457
-0.901266
-0.86574
-0.84253
-0.878056
-0.86574
-0.831202
-0.807992
-0.84253
-0.831202
-0.797651
-0.774441
-0.807992
-0.797651
-0.765088
-0.741878
-0.774441
-0.765088
-0.733513
-0.710303
-0.741878
-0.733513
-0.702925
-0.679715
-0.710303
-0.702925
-0.673325
-0.650115
-0.679715
-0.673325
-0.644713
-0.621503
-0.650115
-0.644713
-0.617088
-0.593878
-0.621503
-0.617088
-0.590451
-0.567241
-0.593878
-0.590451
-0.564802
-0.541592
-0.567241
-0.564802
-0.54014
-0.51693
-0.541592
-0.54014
-0.516466
-0.493256
-0.51693
-0.516466
-0.493779
-0.470569
-0.493256
-0.493779
-0.47208
-0.448871
-0.470569
-0.47208
-0.451369
-0.428159
-0.448871
-0.451369
-0.431646
-0.408436
-0.428159
-0.431646
-0.41291
-0.3897
-0.408436
-0.41291
-0.395162
-0.371952
-0.3897
-0.395162
-0.378401
-0.355191
-0.371952
-0.378401
-0.362628
-0.339418
-0.355191
-0.362628
-0.347843
-0.324633
-0.339418
-0.347843
-0.334045
-0.310836
-0.324633
-0.334045
-0.321236
-0.298026
-0.310836
-0.321236
-0.309413
-0.286203
-0.298026
-0.309413
-0.298579
-0.275369
-0.286203
-0.298579
-0.288732
-0.265522
-0.275369
-0.288732
-0.279872
-0.256663
-0.265522
-0.279872
-0.272001
-0.248791
-0.256663
-0.272001
-0.265117
-0.241907
-0.248791
-0.265117
-0.25922
-0.236011
-0.241907
-0.25922
-0.254312
-0.231102
-0.236011
-0.254312
-0.250391
-0.227181
-0.231102
-0.250391
-0.247457
-0.224247
-0.227181
-0.247457
-0.245512
-0.222302
-0.224247
-0.245512
-0.244554
-0.221344
-0.222302
-0.244554
-0.244583
-0.221373
-0.221344
-0.244583
-0.2456
-0.22239
-0.221373
-0.2456
-0.247605
-0.224395
-0.22239
-0.247605
-0.250598
-0.227388
-0.224395
-0.250598
-0.254578
-0.231368
-0.227388
-0.254578
-0.259546
-0.236336
-0.231368
-0.259546
-0.265501
-0.242292
-0.236336
-0.265501
-0.272445
-0.249235
-0.242292
-0.272445
-0.280375
-0.257165
-0.249235
-0.280375
-0.289294
-0.266084
-0.257165
-0.289294
-0.2992
-0.27599
-0.266084
-0.2992
-0.310094
-0.286884
-0.27599
-0.310094
-0.321975
-0.298765
-0.286884
-0.321975
-0.334844
-0.311634
-0.298765
-0.334844
-0.348701
-0.325491
-0.311634
-0.348701
-0.363545
-0.340336
-0.325491
-0.363545
-0.379377
-0.356168
-0.340336
-0.379377
-0.396197
-0.372987
-0.356168
-0.396197
-0.414005
-0.390795
-0.372987
-0.414005
-0.4328
-0.40959
-0.390795
-0.4328
-0.452582
-0.429372
-0.40959
-0.452582
-0.473353
-0.450143
-0.429372
-0.473353
-0.495111
-0.471901
-0.450143
-0.495111
-0.517856
-0.494646
-0.471901
-0.517856
-0.541589
-0.51838
-0.494646
-0.541589