# vtk DataFile Version 1.0
unstructured Grid
ASCII
DATASET UNSTRUCTURED_GRID
POINTS 23440 float 
0 0	 0.0
0.0222222 0	 0.0
0.0222222 0.0222222	 0.0
0 0.0222222	 0.0
0.0222222 0	 0.0
0.0444444 0	 0.0
0.0444444 0.0222222	 0.0
0.0222222 0.0222222	 0.0
0.0444444 0	 0.0
0.0666667 0	 0.0
0.0666667 0.0222222	 0.0
0.0444444 0.0222222	 0.0
0.0666667 0	 0.0
0.0888889 0	 0.0
0.0888889 0.0222222	 0.0
0.0666667 0.0222222	 0.0
0.0888889 0	 0.0
0.111111 0	 0.0
0.111111 0.0222222	 0.0
0.0888889 0.0222222	 0.0
0.111111 0	 0.0
0.133333 0	 0.0
0.133333 0.0222222	 0.0
0.111111 0.0222222	 0.0
0.133333 0	 0.0
0.155556 0	 0.0
0.155556 0.0222222	 0.0
0.133333 0.0222222	 0.0
0.155556 0	 0.0
0.177778 0	 0.0
0.177778 0.0222222	 0.0
0.155556 0.0222222	 0.0
0.177778 0	 0.0
0.2 0	 0.0
0.2 0.0222222	 0.0
0.177778 0.0222222	 0.0
0.2 0	 0.0
0.222222 0	 0.0
0.222222 0.0222222	 0.0
0.2 0.0222222	 0.0
0.222222 0	 0.0
0.244444 0	 0.0
0.244444 0.0222222	 0.0
0.222222 0.0222222	 0.0
0.244444 0	 0.0
0.266667 0	 0.0
0.266667 0.0222222	 0.0
0.244444 0.0222222	 0.0
0.266667 0	 0.0
0.288889 0	 0.0
0.288889 0.0222222	 0.0
0.266667 0.0222222	 0.0
0.288889 0	 0.0
0.311111 0	 0.0
0.311111 0.0222222	 0.0
0.288889 0.0222222	 0.0
0.311111 0	 0.0
0.333333 0	 0.0
0.333333 0.0222222	 0.0
0.311111 0.0222222	 0.0
0.333333 0	 0.0
0.355556 0	 0.0
0.355556 0.0222222	 0.0
0.333333 0.0222222	 0.0
0.355556 0	 0.0
0.377778 0	 0.0
0.377778 0.0222222	 0.0
0.355556 0.0222222	 0.0
0.377778 0	 0.0
0.4 0	 0.0
0.4 0.0222222	 0.0
0.377778 0.0222222	 0.0
0.4 0	 0.0
0.422222 0	 0.0
0.422222 0.0222222	 0.0
0.4 0.0222222	 0.0
0.422222 0	 0.0
0.444444 0	 0.0
0.444444 0.0222222	 0.0
0.422222 0.0222222	 0.0
0.444444 0	 0.0
0.466667 0	 0.0
0.466667 0.0222222	 0.0
0.444444 0.0222222	 0.0
0.466667 0	 0.0
0.488889 0	 0.0
0.488889 0.0222222	 0.0
0.466667 0.0222222	 0.0
0.488889 0	 0.0
0.511111 0	 0.0
0.511111 0.0222222	 0.0
0.488889 0.0222222	 0.0
0.511111 0	 0.0
0.533333 0	 0.0
0.533333 0.0222222	 0.0
0.511111 0.0222222	 0.0
0.533333 0	 0.0
0.555556 0	 0.0
0.555556 0.0222222	 0.0
0.533333 0.0222222	 0.0
0.555556 0	 0.0
0.577778 0	 0.0
0.577778 0.0222222	 0.0
0.555556 0.0222222	 0.0
0.577778 0	 0.0
0.6 0	 0.0
0.6 0.0222222	 0.0
0.577778 0.0222222	 0.0
0.6 0	 0.0
0.622222 0	 0.0
0.622222 0.0222222	 0.0
0.6 0.0222222	 0.0
0.622222 0	 0.0
0.644444 0	 0.0
0.644444 0.0222222	 0.0
0.622222 0.0222222	 0.0
0.644444 0	 0.0
0.666667 0	 0.0
0.666667 0.0222222	 0.0
0.644444 0.0222222	 0.0
0.666667 0	 0.0
0.688889 0	 0.0
0.688889 0.0222222	 0.0
0.666667 0.0222222	 0.0
0.688889 0	 0.0
0.711111 0	 0.0
0.711111 0.0222222	 0.0
0.688889 0.0222222	 0.0
0.711111 0	 0.0
0.733333 0	 0.0
0.733333 0.0222222	 0.0
0.711111 0.0222222	 0.0
0.733333 0	 0.0
0.755556 0	 0.0
0.755556 0.0222222	 0.0
0.733333 0.0222222	 0.0
0.755556 0	 0.0
0.777778 0	 0.0
0.777778 0.0222222	 0.0
0.755556 0.0222222	 0.0
0.777778 0	 0.0
0.8 0	 0.0
0.8 0.0222222	 0.0
0.777778 0.0222222	 0.0
0.8 0	 0.0
0.822222 0	 0.0
0.822222 0.0222222	 0.0
0.8 0.0222222	 0.0
0.822222 0	 0.0
0.844444 0	 0.0
0.844444 0.0222222	 0.0
0.822222 0.0222222	 0.0
0.844444 0	 0.0
0.866667 0	 0.0
0.866667 0.0222222	 0.0
0.844444 0.0222222	 0.0
0.866667 0	 0.0
0.888889 0	 0.0
0.888889 0.0222222	 0.0
0.866667 0.0222222	 0.0
0.888889 0	 0.0
0.911111 0	 0.0
0.911111 0.0222222	 0.0
0.888889 0.0222222	 0.0
0.911111 0	 0.0
0.933333 0	 0.0
0.933333 0.0222222	 0.0
0.911111 0.0222222	 0.0
0.933333 0	 0.0
0.955556 0	 0.0
0.955556 0.0222222	 0.0
0.933333 0.0222222	 0.0
0.955556 0	 0.0
0.977778 0	 0.0
0.977778 0.0222222	 0.0
0.955556 0.0222222	 0.0
0.977778 0	 0.0
1 0	 0.0
1 0.0222222	 0.0
0.977778 0.0222222	 0.0
1 0	 0.0
1.02222 0	 0.0
1.02222 0.0222222	 0.0
1 0.0222222	 0.0
1.02222 0	 0.0
1.04444 0	 0.0
1.04444 0.0222222	 0.0
1.02222 0.0222222	 0.0
1.04444 0	 0.0
1.06667 0	 0.0
1.06667 0.0222222	 0.0
1.04444 0.0222222	 0.0
1.06667 0	 0.0
1.08889 0	 0.0
1.08889 0.0222222	 0.0
1.06667 0.0222222	 0.0
1.08889 0	 0.0
1.11111 0	 0.0
1.11111 0.0222222	 0.0
1.08889 0.0222222	 0.0
1.11111 0	 0.0
1.13333 0	 0.0
1.13333 0.0222222	 0.0
1.11111 0.0222222	 0.0
1.13333 0	 0.0
1.15556 0	 0.0
1.15556 0.0222222	 0.0
1.13333 0.0222222	 0.0
1.15556 0	 0.0
1.17778 0	 0.0
1.17778 0.0222222	 0.0
1.15556 0.0222222	 0.0
1.17778 0	 0.0
1.2 0	 0.0
1.2 0.0222222	 0.0
1.17778 0.0222222	 0.0
1.2 0	 0.0
1.22222 0	 0.0
1.22222 0.0222222	 0.0
1.2 0.0222222	 0.0
1.22222 0	 0.0
1.24444 0	 0.0
1.24444 0.0222222	 0.0
1.22222 0.0222222	 0.0
1.24444 0	 0.0
1.26667 0	 0.0
1.26667 0.0222222	 0.0
1.24444 0.0222222	 0.0
1.26667 0	 0.0
1.28889 0	 0.0
1.28889 0.0222222	 0.0
1.26667 0.0222222	 0.0
1.28889 0	 0.0
1.31111 0	 0.0
1.31111 0.0222222	 0.0
1.28889 0.0222222	 0.0
1.31111 0	 0.0
1.33333 0	 0.0
1.33333 0.0222222	 0.0
1.31111 0.0222222	 0.0
1.33333 0	 0.0
1.35556 0	 0.0
1.35556 0.0222222	 0.0
1.33333 0.0222222	 0.0
1.35556 0	 0.0
1.37778 0	 0.0
1.37778 0.0222222	 0.0
1.35556 0.0222222	 0.0
1.37778 0	 0.0
1.4 0	 0.0
1.4 0.0222222	 0.0
1.37778 0.0222222	 0.0
1.4 0	 0.0
1.42222 0	 0.0
1.42222 0.0222222	 0.0
1.4 0.0222222	 0.0
1.42222 0	 0.0
1.44444 0	 0.0
1.44444 0.0222222	 0.0
1.42222 0.0222222	 0.0
1.44444 0	 0.0
1.46667 0	 0.0
1.46667 0.0222222	 0.0
1.44444 0.0222222	 0.0
1.46667 0	 0.0
1.48889 0	 0.0
1.48889 0.0222222	 0.0
1.46667 0.0222222	 0.0
1.48889 0	 0.0
1.51111 0	 0.0
1.51111 0.0222222	 0.0
1.48889 0.0222222	 0.0
1.51111 0	 0.0
1.53333 0	 0.0
1.53333 0.0222222	 0.0
1.51111 0.0222222	 0.0
1.53333 0	 0.0
1.55556 0	 0.0
1.55556 0.0222222	 0.0
1.53333 0.0222222	 0.0
1.55556 0	 0.0
1.57778 0	 0.0
1.57778 0.0222222	 0.0
1.55556 0.0222222	 0.0
1.57778 0	 0.0
1.6 0	 0.0
1.6 0.0222222	 0.0
1.57778 0.0222222	 0.0
1.6 0	 0.0
1.62222 0	 0.0
1.62222 0.0222222	 0.0
1.6 0.0222222	 0.0
1.62222 0	 0.0
1.64444 0	 0.0
1.64444 0.0222222	 0.0
1.62222 0.0222222	 0.0
1.64444 0	 0.0
1.66667 0	 0.0
1.66667 0.0222222	 0.0
1.64444 0.0222222	 0.0
1.66667 0	 0.0
1.68889 0	 0.0
1.68889 0.0222222	 0.0
1.66667 0.0222222	 0.0
1.68889 0	 0.0
1.71111 0	 0.0
1.71111 0.0222222	 0.0
1.68889 0.0222222	 0.0
1.71111 0	 0.0
1.73333 0	 0.0
1.73333 0.0222222	 0.0
1.71111 0.0222222	 0.0
1.73333 0	 0.0
1.75556 0	 0.0
1.75556 0.0222222	 0.0
1.73333 0.0222222	 0.0
1.75556 0	 0.0
1.77778 0	 0.0
1.77778 0.0222222	 0.0
1.75556 0.0222222	 0.0
1.77778 0	 0.0
1.8 0	 0.0
1.8 0.0222222	 0.0
1.77778 0.0222222	 0.0
1.8 0	 0.0
1.82222 0	 0.0
1.82222 0.0222222	 0.0
1.8 0.0222222	 0.0
1.82222 0	 0.0
1.84444 0	 0.0
1.84444 0.0222222	 0.0
1.82222 0.0222222	 0.0
1.84444 0	 0.0
1.86667 0	 0.0
1.86667 0.0222222	 0.0
1.84444 0.0222222	 0.0
1.86667 0	 0.0
1.88889 0	 0.0
1.88889 0.0222222	 0.0
1.86667 0.0222222	 0.0
1.88889 0	 0.0
1.91111 0	 0.0
1.91111 0.0222222	 0.0
1.88889 0.0222222	 0.0
1.91111 0	 0.0
1.93333 0	 0.0
1.93333 0.0222222	 0.0
1.91111 0.0222222	 0.0
1.93333 0	 0.0
1.95556 0	 0.0
1.95556 0.0222222	 0.0
1.93333 0.0222222	 0.0
1.95556 0	 0.0
1.97778 0	 0.0
1.97778 0.0222222	 0.0
1.95556 0.0222222	 0.0
1.97778 0	 0.0
2 0	 0.0
2 0.0222222	 0.0
1.97778 0.0222222	 0.0
2 0	 0.0
2.02222 0	 0.0
2.02222 0.0222222	 0.0
2 0.0222222	 0.0
2.02222 0	 0.0
2.04444 0	 0.0
2.04444 0.0222222	 0.0
2.02222 0.0222222	 0.0
2.04444 0	 0.0
2.06667 0	 0.0
2.06667 0.0222222	 0.0
2.04444 0.0222222	 0.0
2.06667 0	 0.0
2.08889 0	 0.0
2.08889 0.0222222	 0.0
2.06667 0.0222222	 0.0
2.08889 0	 0.0
2.11111 0	 0.0
2.11111 0.0222222	 0.0
2.08889 0.0222222	 0.0
2.11111 0	 0.0
2.13333 0	 0.0
2.13333 0.0222222	 0.0
2.11111 0.0222222	 0.0
2.13333 0	 0.0
2.15556 0	 0.0
2.15556 0.0222222	 0.0
2.13333 0.0222222	 0.0
2.15556 0	 0.0
2.17778 0	 0.0
2.17778 0.0222222	 0.0
2.15556 0.0222222	 0.0
2.17778 0	 0.0
2.2 0	 0.0
2.2 0.0222222	 0.0
2.17778 0.0222222	 0.0
2.2 0	 0.0
2.22222 0	 0.0
2.22222 0.0222222	 0.0
2.2 0.0222222	 0.0
2.22222 0	 0.0
2.24444 0	 0.0
2.24444 0.0222222	 0.0
2.22222 0.0222222	 0.0
2.24444 0	 0.0
2.26667 0	 0.0
2.26667 0.0222222	 0.0
2.24444 0.0222222	 0.0
2.26667 0	 0.0
2.28889 0	 0.0
2.28889 0.0222222	 0.0
2.26667 0.0222222	 0.0
2.28889 0	 0.0
2.31111 0	 0.0
2.31111 0.0222222	 0.0
2.28889 0.0222222	 0.0
2.31111 0	 0.0
2.33333 0	 0.0
2.33333 0.0222222	 0.0
2.31111 0.0222222	 0.0
2.33333 0	 0.0
2.35556 0	 0.0
2.35556 0.0222222	 0.0
2.33333 0.0222222	 0.0
2.35556 0	 0.0
2.37778 0	 0.0
2.37778 0.0222222	 0.0
2.35556 0.0222222	 0.0
2.37778 0	 0.0
2.4 0	 0.0
2.4 0.0222222	 0.0
2.37778 0.0222222	 0.0
2.4 0	 0.0
2.42222 0	 0.0
2.42222 0.0222222	 0.0
2.4 0.0222222	 0.0
2.42222 0	 0.0
2.44444 0	 0.0
2.44444 0.0222222	 0.0
2.42222 0.0222222	 0.0
2.44444 0	 0.0
2.46667 0	 0.0
2.46667 0.0222222	 0.0
2.44444 0.0222222	 0.0
2.46667 0	 0.0
2.48889 0	 0.0
2.48889 0.0222222	 0.0
2.46667 0.0222222	 0.0
2.48889 0	 0.0
2.51111 0	 0.0
2.51111 0.0222222	 0.0
2.48889 0.0222222	 0.0
2.51111 0	 0.0
2.53333 0	 0.0
2.53333 0.0222222	 0.0
2.51111 0.0222222	 0.0
2.53333 0	 0.0
2.55556 0	 0.0
2.55556 0.0222222	 0.0
2.53333 0.0222222	 0.0
2.55556 0	 0.0
2.57778 0	 0.0
2.57778 0.0222222	 0.0
2.55556 0.0222222	 0.0
2.57778 0	 0.0
2.6 0	 0.0
2.6 0.0222222	 0.0
2.57778 0.0222222	 0.0
2.6 0	 0.0
2.62222 0	 0.0
2.62222 0.0222222	 0.0
2.6 0.0222222	 0.0
2.62222 0	 0.0
2.64444 0	 0.0
2.64444 0.0222222	 0.0
2.62222 0.0222222	 0.0
2.64444 0	 0.0
2.66667 0	 0.0
2.66667 0.0222222	 0.0
2.64444 0.0222222	 0.0
2.66667 0	 0.0
2.68889 0	 0.0
2.68889 0.0222222	 0.0
2.66667 0.0222222	 0.0
2.68889 0	 0.0
2.71111 0	 0.0
2.71111 0.0222222	 0.0
2.68889 0.0222222	 0.0
2.71111 0	 0.0
2.73333 0	 0.0
2.73333 0.0222222	 0.0
2.71111 0.0222222	 0.0
2.73333 0	 0.0
2.75556 0	 0.0
2.75556 0.0222222	 0.0
2.73333 0.0222222	 0.0
2.75556 0	 0.0
2.77778 0	 0.0
2.77778 0.0222222	 0.0
2.75556 0.0222222	 0.0
2.77778 0	 0.0
2.8 0	 0.0
2.8 0.0222222	 0.0
2.77778 0.0222222	 0.0
2.8 0	 0.0
2.82222 0	 0.0
2.82222 0.0222222	 0.0
2.8 0.0222222	 0.0
2.82222 0	 0.0
2.84444 0	 0.0
2.84444 0.0222222	 0.0
2.82222 0.0222222	 0.0
2.84444 0	 0.0
2.86667 0	 0.0
2.86667 0.0222222	 0.0
2.84444 0.0222222	 0.0
2.86667 0	 0.0
2.88889 0	 0.0
2.88889 0.0222222	 0.0
2.86667 0.0222222	 0.0
2.88889 0	 0.0
2.91111 0	 0.0
2.91111 0.0222222	 0.0
2.88889 0.0222222	 0.0
2.91111 0	 0.0
[...]
POINT_DATA 23440
SCALARS levelset_first float
LOOKUP_TABLE default
-5.61939
-5.51757
-5.4914
-5.59322
-5.51757
-5.41674
-5.39057
-5.4914
-5.41674
-5.31689
-5.29072
-5.39057
-5.31689
-5.21804
-5.19187
-5.29072
-5.21804
-5.12017
-5.094
-5.19187
-5.12017
-5.02329
-4.99712
-5.094
-5.02329
-4.9274
-4.90122
-4.99712
-4.9274
-4.83249
-4.80632
-4.90122
-4.83249
-4.73857
-4.7124
-4.80632
-4.73857
-4.64564
-4.61947
-4.7124
-4.64564
-4.5537
-4.52753
-4.61947
-4.5537
-4.46274
-4.43657
-4.52753
-4.46274
-4.37278
-4.3466
-4.43657
-4.37278
-4.2838
-4.25763
-4.3466
-4.2838
-4.19581
-4.16963
-4.25763
-4.19581
-4.1088
-4.08263
-4.16963
-4.1088
-4.02279
-3.99661
-4.08263
-4.02279
-3.93776
-3.91158
-3.99661
-3.93776
-3.85372
-3.82754
-3.91158
-3.85372
-3.77066
-3.74449
-3.82754
-3.77066
-3.6886
-3.66242
-3.74449
-3.6886
-3.60752
-3.58134
-3.66242
-3.60752
-3.52743
-3.50125
-3.58134
-3.52743
-3.44832
-3.42215
-3.50125
-3.44832
-3.37021
-3.34404
-3.42215
-3.37021
-3.29308
-3.26691
-3.34404
-3.29308
-3.21694
-3.19077
-3.26691
-3.21694
-3.14179
-3.11562
-3.19077
-3.14179
-3.06762
-3.04145
-3.11562
-3.06762
-2.99445
-2.96827
-3.04145
-2.99445
-2.92226
-2.89608
-2.96827
-2.92226
-2.85105
-2.82488
-2.89608
-2.85105
-2.78084
-2.75467
-2.82488
-2.78084
-2.71161
-2.68544
-2.75467
-2.71161
-2.64338
-2.6172
-2.68544
-2.64338
-2.57612
-2.54995
-2.6172
-2.57612
-2.50986
-2.48369
-2.54995
-2.50986
-2.44459
-2.41841
-2.48369
-2.44459
-2.3803
-2.35412
-2.41841
-2.3803
-2.317
-2.29082
-2.35412
-2.317
-2.25468
-2.22851
-2.29082
-2.25468
-2.19336
-2.16719
-2.22851
-2.19336
-2.13302
-2.10685
-2.16719
-2.13302
-2.07367
-2.0475
-2.10685
-2.07367
-2.01531
-1.98914
-2.0475
-2.01531
-1.95793
-1.93176
-1.98914
-1.95793
-1.90155
-1.87537
-1.93176
-1.90155
-1.84615
-1.81997
-1.87537
-1.84615
-1.79174
-1.76556
-1.81997
-1.79174
-1.73831
-1.71214
-1.76556
-1.73831
-1.68588
-1.6597
-1.71214
-1.68588
-1.63443
-1.60825
-1.6597
-1.63443
-1.58397
-1.55779
-1.60825
-1.58397
-1.53449
-1.50832
-1.55779
-1.53449
-1.48601
-1.45983
-1.50832
-1.48601
-1.43851
-1.41234
-1.45983
-1.43851
-1.392
-1.36583
-1.41234
-1.392
-1.34648
-1.3203
-1.36583
-1.34648
-1.30194
-1.27577
-1.3203
-1.30194
-1.25839
-1.23222
-1.27577
-1.25839
-1.21583
-1.18966
-1.23222
-1.21583
-1.17426
-1.14809
-1.18966
-1.17426
-1.13368
-1.1075
-1.14809
-1.13368
-1.09408
-1.06791
-1.1075
-1.09408
-1.05547
-1.0293
-1.06791
-1.05547
-1.01785
-0.991676
-1.0293
-1.01785
-0.981215
-0.955042
-0.991676
-0.981215
-0.945569
-0.919396
-0.955042
-0.945569
-0.91091
-0.884737
-0.919396
-0.91091
-0.877239
-0.851066
-0.884737
-0.877239
-0.844556
-0.818383
-0.851066
-0.844556
-0.81286
-0.786687
-0.818383
-0.81286
-0.782152
-0.755979
-0.786687
-0.782152
-0.752432
-0.726259
-0.755979
-0.752432
-0.723699
-0.697527
-0.726259
-0.723699
-0.695954
-0.669782
-0.697527
-0.695954
-0.669197
-0.643024
-0.669782
-0.669197
-0.643427
-0.617255
-0.643024
-0.643427
-0.618645
-0.592472
-0.617255
-0.618645
-0.594851
-0.568678
-0.592472
-0.594851
-0.572044
-0.545871
-0.568678
-0.572044
-0.550225
-0.524052
-0.545871
-0.550225
-0.529394
-0.503221
-0.524052
-0.529394
-0.50955
-0.483377
-0.503221
-0.50955
-0.490694
-0.464521
-0.483377
-0.490694
-0.472825
-0.446653
-0.464521
-0.472825
-0.455945
-0.429772
-0.446653
-0.455945
-0.440052
-0.413879
-0.429772
-0.440052
-0.425146
-0.398973
-0.413879
-0.425146
-0.411228
-0.385055
-0.398973
-0.411228
-0.398298
-0.372125
-0.385055
-0.398298
-0.386356
-0.360183
-0.372125
-0.386356
-0.375401
-0.349228
-0.360183
-0.375401
-0.365433
-0.339261
-0.349228
-0.365433
-0.356454
-0.330281
-0.339261
-0.356454
-0.348462
-0.322289
-0.330281
-0.348462
-0.341458
-0.315285
-0.322289
-0.341458
-0.335441
-0.309268
-0.315285
-0.335441
-0.330412
-0.304239
-0.309268
-0.330412
-0.326371
-0.300198
-0.304239
-0.326371
-0.323317
-0.297144
-0.300198
-0.323317
-0.321251
-0.295078
-0.297144
-0.321251
-0.320173
-0.294
-0.295078
-0.320173
-0.320082
-0.293909
-0.294
-0.320082
-0.320979
-0.294806
-0.293909
-0.320979
-0.322864
-0.296691
-0.294806
-0.322864
-0.325736
-0.299563
-0.296691
-0.325736
-0.329596
-0.303423
-0.299563
-0.329596
-0.334444
-0.308271
-0.303423
-0.334444
-0.340279
-0.314106
-0.308271
-0.340279
-0.347102
-0.320929
-0.314106
-0.347102
-0.354912
-0.32874
-0.320929
-0.354912
-0.363711
-0.337538
-0.32874
-0.363711
-0.373497
-0.347324
-0.337538
-0.373497
-0.38427
-0.358097
-0.347324
-0.38427
-0.396031
-0.369858
-0.358097
-0.396031
-0.40878
-0.382607
-0.369858
-0.40878
-0.422517
-0.396344
-0.382607
-0.422517
-0.437241
-0.411068
-0.396344
-0.437241
-0.452953
-0.42678
-0.411068
-0.452953
-0.469652
-0.443479
-0.42678
-0.469652
-0.487339
-0.461166
-0.443479
-0.487339
-0.506014
-0.479841
-0.461166
-0.506014
-0.525676
-0.499503
-0.479841
-0.525676
-0.546326
-0.520154
-0.499503
-0.546326
-0.567964
-0.541791
-0.520154
-0.567964
-0.590589
-0.564417
-0.541791
-0.590589
-0.614203
-0.58803
-0.564417
-0.614203
-0.638803
-0.61263
-0.58803
-0.638803
-0.664392
-0.638219
-0.61263
-0.664392
-0.690968
-0.664795
-0.638219
-0.690968
-0.718531
-0.692358
-0.664795
-0.718531
-0.747082
-0.72091
-0.692358
-0.747082
-0.776621
-0.750449
-0.72091
-0.776621
-0.807148
-0.780975
-0.750449
-5.59322
-5.4914
-5.46621
-5.56803
-5.4914
-5.39057
-5.36538
-5.46621
-5.39057
-5.29072
-5.26554
-5.36538
-5.29072
-5.19187
-5.16668
-5.26554
-5.19187
-5.094
-5.06881
-5.16668
-5.094
-4.99712
-4.97193
-5.06881
-4.99712
-4.90122
-4.87604
-4.97193
-4.90122
-4.80632
-4.78113
-4.87604
-4.80632
-4.7124
-4.68721
-4.78113
-4.7124
-4.61947
-4.59428
-4.68721
-4.61947
-4.52753
-4.50234
-4.59428
-4.52753
-4.43657
-4.41139
-4.50234
-4.43657
-4.3466
-4.32142
-4.41139
-4.3466
-4.25763
-4.23244
-4.32142
-4.25763
-4.16963
-4.14445
-4.23244
-4.16963
-4.08263
-4.05744
-4.14445
-4.08263
-3.99661
-3.97143
-4.05744
-3.99661
-3.91158
-3.8864
-3.97143
-3.91158
-3.82754
-3.80236
-3.8864
-3.82754
-3.74449
-3.7193
-3.80236
-3.74449
-3.66242
-3.63724
-3.7193
-3.66242
-3.58134
-3.55616
-3.63724
-3.58134
-3.50125
-3.47607
-3.55616
-3.50125
-3.42215
-3.39697
-3.47607
-3.42215
-3.34404
-3.31885
-3.39697
-3.34404
-3.26691
-3.24172
-3.31885
-3.26691
-3.19077
-3.16558
-3.24172
-3.19077
-3.11562
-3.09043
-3.16558
-3.11562
-3.04145
-3.01627
-3.09043
-3.04145
-2.96827
-2.94309
-3.01627
-2.96827
-2.89608
-2.8709
-2.94309
-2.89608
-2.82488
-2.7997
-2.8709
-2.82488
-2.75467
-2.72948
-2.7997
-2.75467
-2.68544
-2.66026
-2.72948
-2.68544
-2.6172
-2.59202
-2.66026
-2.6172
-2.54995
-2.52477
-2.59202
-2.54995
-2.48369
-2.4585
-2.52477
-2.48369
-2.41841
-2.39323
-2.4585
-2.41841
-2.35412
-2.32894
-2.39323
-2.35412
-2.29082
-2.26564
-2.32894
-2.29082
-2.22851
-2.20333
-2.26564
-2.22851
-2.16719
-2.142
-2.20333
-2.16719
-2.10685
-2.08166
-2.142
-2.10685
-2.0475
-2.02231
-2.08166
-2.0475
-1.98914
-1.96395
-2.02231
-1.98914
-1.93176
-1.90658
-1.96395
-1.93176
-1.87537
-1.85019
-1.90658
-1.87537
-1.81997
-1.79479
-1.85019
-1.81997
-1.76556
-1.74038
-1.79479
-1.76556
-1.71214
-1.68695
-1.74038
-1.71214
-1.6597
-1.63452
-1.68695
-1.6597
-1.60825
-1.58307
-1.63452
-1.60825
-1.55779
-1.53261
-1.58307
-1.55779
-1.50832
-1.48313
-1.53261
-1.50832
-1.45983
-1.43465
-1.48313
-1.45983
-1.41234
-1.38715
-1.43465
-1.41234
-1.36583
-1.34064
-1.38715
-1.36583
-1.3203
-1.29512
-1.34064
-1.3203
-1.27577
-1.25058
-1.29512
-1.27577
-1.23222
-1.20703
-1.25058
-1.23222
-1.18966
-1.16447
-1.20703
-1.18966
-1.14809
-1.1229
-1.16447
-1.14809
-1.1075
-1.08232
-1.1229
-1.1075
-1.06791
-1.04272
-1.08232
-1.06791
-1.0293
-1.00411
-1.04272
-1.0293
-0.991676
-0.966491
-1.00411
-0.991676
-0.955042
-0.929857
-0.966491
-0.955042
-0.919396
-0.894211
-0.929857
-0.919396
-0.884737
-0.859552
-0.894211
-0.884737
-0.851066
-0.825881
-0.859552
-0.851066
-0.818383
-0.793198
-0.825881
-0.818383
-0.786687
-0.761502
-0.793198
-0.786687
-0.755979
-0.730794
-0.761502
-0.755979
-0.726259
-0.701074
-0.730794
-0.726259
-0.697527
-0.672341
-0.701074
-0.697527
-0.669782
-0.644596
-0.672341
-0.669782
-0.643024
-0.617839
-0.644596
-0.643024
-0.617255
-0.592069
-0.617839
-0.617255
-0.592472
-0.567287
-0.592069
-0.592472
-0.568678
-0.543493
-0.567287
-0.568678
-0.545871
-0.520686
-0.543493
-0.545871
-0.524052
-0.498867
-0.520686
-0.524052
-0.503221
-0.478036
-0.498867
-0.503221
-0.483377
-0.458192
-0.478036
-0.483377
-0.464521
-0.439336
-0.458192
-0.464521
-0.446653
-0.421467
-0.439336
-0.446653
-0.429772
-0.404587
-0.421467
-0.429772
-0.413879
-0.388693
-0.404587
-0.413879
-0.398973
-0.373788
-0.388693
-0.398973
-0.385055
-0.35987
-0.373788
-0.385055
-0.372125
-0.34694
-0.35987
-0.372125
-0.360183
-0.334997
-0.34694
-0.360183
-0.349228
-0.324043
-0.334997
-0.349228
-0.339261
-0.314075
-0.324043
-0.339261
-0.330281
-0.305096
-0.314075
-0.330281
-0.322289
-0.297104
-0.305096
-0.322289
-0.315285
-0.2901
-0.297104
-0.315285
-0.309268
-0.284083
-0.2901
-0.309268
-0.304239
-0.279054
-0.284083
-0.304239
-0.300198
-0.275013
-0.279054
-0.300198
-0.297144
-0.271959
-0.275013
-0.297144
-0.295078
-0.269893
-0.271959
-0.295078
-0.294
-0.268815
-0.269893
-0.294
-0.293909
-0.268724
-0.268815
-0.293909
-0.294806
-0.269621
-0.268724
-0.294806
-0.296691
-0.271506
-0.269621
-0.296691
-0.299563
-0.274378
-0.271506
-0.299563
-0.303423
-0.278238
-0.274378
-0.303423
-0.308271
-0.283086
-0.278238
-0.308271
-0.314106
-0.288921
-0.283086
-0.314106
-0.320929
-0.295744
-0.288921
-0.320929
-0.32874
-0.303554
-0.295744
-0.32874
-0.337538
-0.312353
-0.303554
-0.337538
-0.347324
-0.322139
-0.312353
-0.347324
-0.358097
-0.332912
-0.322139
-0.358097
-0.369858
-0.344673
-0.332912
-0.369858
-0.382607
-0.357422
-0.344673
-0.382607
-0.396344
-0.371159
-0.357422
-0.396344
-0.411068
-0.385883
-0.371159
-0.411068
-0.42678
-0.401595
-0.385883
-0.42678
-0.443479
-0.418294
-0.401595
-0.443479
-0.461166
-0.435981
-0.418294
-0.461166
-0.479841
-0.454656
-0.435981
-0.479841
-0.499503
-0.474318
-0.454656
-0.499503
-0.520154
-0.494968
-0.474318
-0.520154
-0.541791
-0.516606
-0.494968
-0.541791
-0.564417
-0.539231
-0.516606
-0.564417
-0.58803
-0.562844
-0.539231
-0.58803
-0.61263
-0.587445
-0.562844
-0.61263
-0.638219
-0.613034
-0.587445
-0.638219
-0.664795
-0.63961
-0.613034
-0.664795
-0.692358
-0.667173
-0.63961
-0.692358
-0.72091
-0.695724
-0.667173
-0.72091
-0.750449
-0.725263
-0.695724
-0.750449
-0.780975
-0.75579
-0.725263
-5.56803
-5.46621
-5.44201
-5.54383
-5.46621
-5.36538
-5.34118
-5.44201
-5.36538
-5.26554
-5.24134
-5.34118
-5.26554
-5.16668
-5.14248
-5.24134
-5.16668
-5.06881
-5.04461
-5.14248
-5.06881
-4.97193
-4.94773
-5.04461
-4.97193
-4.87604
-4.85184
-4.94773
-4.87604
-4.78113
-4.75693
-4.85184
-4.78113
-4.68721
-4.66302
-4.75693
-4.68721
-4.59428
-4.57009
-4.66302
-4.59428
-4.50234
-4.47814
-4.57009
-4.50234
-4.41139
-4.38719
-4.47814
-4.41139
-4.32142
-4.29722
-4.38719
-4.32142
-4.23244
-4.20824
-4.29722
-4.23244
-4.14445
-4.12025
-4.20824
-4.14445
-4.05744
-4.03325
-4.12025
-4.05744
-3.97143
-3.94723
-4.03325
-3.97143
-3.8864
-3.8622
-3.94723
-3.8864
-3.80236
-3.77816
-3.8622
-3.80236
-3.7193
-3.69511
-3.77816
-3.7193
-3.63724
-3.61304
-3.69511
-3.63724
-3.55616
-3.53196
-3.61304
-3.55616
-3.47607
-3.45187
-3.53196
-3.47607
-3.39697
-3.37277
-3.45187
-3.39697
-3.31885
-3.29465
-3.37277
-3.31885
-3.24172
-3.21752
-3.29465
-3.24172
-3.16558
-3.14138
-3.21752
-3.16558
-3.09043
-3.06623
-3.14138
-3.09043
-3.01627
-2.99207
-3.06623
-3.01627
-2.94309
-2.91889
-2.99207
-2.94309
-2.8709
-2.8467
-2.91889
-2.8709
-2.7997
-2.7755
-2.8467
-2.7997
-2.72948
-2.70529
-2.7755
-2.72948
-2.66026
-2.63606
-2.70529
-2.66026
-2.59202
-2.56782
-2.63606
-2.59202
-2.52477
-2.50057
-2.56782
-2.52477
-2.4585
-2.43431
-2.50057
-2.4585
-2.39323
-2.36903
-2.43431
-2.39323
-2.32894
-2.30474
-2.36903
-2.32894
-2.26564
-2.24144
-2.30474
-2.26564
-2.20333
-2.17913
-2.24144
-2.20333
-2.142
-2.1178
-2.17913
-2.142
-2.08166
-2.05746
-2.1178
-2.08166
-2.02231
-1.99812
-2.05746
-2.02231
-1.96395
-1.93975
-1.99812
-1.96395
-1.90658
-1.88238
-1.93975
-1.90658
-1.85019
-1.82599
-1.88238
-1.85019
-1.79479
-1.77059
-1.82599
-1.79479
-1.74038
-1.71618
-1.77059
-1.74038
-1.68695
-1.66276
-1.71618
-1.68695
-1.63452
-1.61032
-1.66276
-1.63452
-1.58307
-1.55887
-1.61032
-1.58307
-1.53261
-1.50841
-1.55887
-1.53261
-1.48313
-1.45894
-1.50841
-1.48313
-1.43465
-1.41045
-1.45894
-1.43465
-1.38715
-1.36295
-1.41045
-1.38715
-1.34064
-1.31644
-1.36295
-1.34064
-1.29512
-1.27092
-1.31644
-1.29512
-1.25058
-1.22638
-1.27092
-1.25058
-1.20703
-1.18284
-1.22638
-1.20703
-1.16447
-1.14028
-1.18284
-1.16447
-1.1229
-1.09871
-1.14028
-1.1229
-1.08232
-1.05812
-1.09871
-1.08232
-1.04272
-1.01852
-1.05812
-1.04272
-1.00411
-0.979915
-1.01852
-1.00411
-0.966491
-0.942293
-0.979915
-0.966491
-0.929857
-0.905659
-0.942293
-0.929857
-0.894211
-0.870013
-0.905659
-0.894211
-0.859552
-0.835354
-0.870013
-0.859552
-0.825881
-0.801684
-0.835354
-0.825881
-0.793198
-0.769
-0.801684
-0.793198
-0.761502
-0.737305
-0.769
-0.761502
-0.730794
-0.706597
-0.737305
-0.730794
-0.701074
-0.676876
-0.706597
-0.701074
-0.672341
-0.648144
-0.676876
-0.672341
-0.644596
-0.620399
-0.648144
-0.644596
-0.617839
-0.593641
-0.620399
-0.617839
-0.592069
-0.567872
-0.593641
-0.592069
-0.567287
-0.54309
-0.567872
-0.567287
-0.543493
-0.519295
-0.54309
-0.543493
-0.520686
-0.496489
-0.519295
-0.520686
-0.498867
-0.47467
-0.496489
-0.498867
-0.478036
-0.453838
-0.47467
-0.478036
-0.458192
-0.433994
-0.453838
-0.458192
-0.439336
-0.415138
-0.433994
-0.439336
-0.421467
-0.39727
-0.415138
-0.421467
-0.404587
-0.380389
-0.39727
-0.404587
-0.388693
-0.364496
-0.380389
-0.388693
-0.373788
-0.34959
-0.364496
-0.373788
-0.35987
-0.335673
-0.34959
-0.35987
-0.34694
-0.322742
-0.335673
-0.34694
-0.334997
-0.3108
-0.322742
-0.334997
-0.324043
-0.299845
-0.3108
-0.324043
-0.314075
-0.289878
-0.299845
-0.314075
-0.305096
-0.280898
-0.289878
-0.305096
-0.297104
-0.272906
-0.280898
-0.297104
-0.2901
-0.265902
-0.272906
-0.2901
-0.284083
-0.259886
-0.265902
-0.284083
-0.279054
-0.254857
-0.259886
-0.279054
-0.275013
-0.250815
-0.254857
-0.275013
-0.271959
-0.247762
-0.250815
-0.271959
-0.269893
-0.245696
-0.247762
-0.269893
-0.268815
-0.244617
-0.245696
-0.268815
-0.268724
-0.244527
-0.244617
-0.268724
-0.269621
-0.245424
-0.244527
-0.269621
-0.271506
-0.247308
-0.245424
-0.271506
-0.274378
-0.250181
-0.247308
-0.274378
-0.278238
-0.254041
-0.250181
-0.278238
-0.283086
-0.258888
-0.254041
-0.283086
-0.288921
-0.264723
-0.258888
-0.288921
-0.295744
-0.271546
-0.264723
-0.295744
-0.303554
-0.279357
-0.271546
-0.303554
-0.312353
-0.288155
-0.279357
-0.312353
-0.322139
-0.297941
-0.288155
-0.322139
-0.332912
-0.308715
-0.297941
-0.332912
-0.344673
-0.320476
-0.308715
-0.344673
-0.357422
-0.333225
-0.320476
-0.357422
-0.371159
-0.346961
-0.333225
-0.371159
-0.385883
-0.361685
-0.346961
-0.385883
-0.401595
-0.377397
-0.361685
-0.401595
-0.418294
-0.394096
-0.377397
-0.418294
-0.435981
-0.411784
-0.394096
-0.435981
-0.454656
-0.430458
-0.411784
-0.454656
-0.474318
-0.450121
-0.430458
-0.474318
-0.494968
-0.470771
-0.450121
-0.494968
-0.516606
-0.492409
-0.470771
-0.516606
-0.539231
-0.515034
-0.492409
-0.539231
-0.562844
-0.538647
-0.515034
-0.562844
-0.587445
-0.563248
-0.538647
-0.587445
-0.613034
-0.588836
-0.563248
-0.613034
-0.63961
-0.615412
-0.588836
-0.63961
-0.667173
-0.642976
-0.615412
-0.667173
-0.695724
-0.671527
-0.642976
-0.695724
-0.725263
-0.701066
-0.671527
-0.725263
-0.75579
-0.731593
-0.701066
-5.54383
-5.44201
-5.4188
-5.52062
-5.44201
-5.34118
-5.31797
-5.4188
-5.34118
-5.24134
-5.21813
-5.31797
-5.24134
-5.14248
-5.11927
-5.21813
-5.14248
-5.04461
-5.0214
-5.11927
-5.04461
-4.94773
-4.92452
-5.0214
-4.94773
-4.85184
-4.82863
-4.92452
-4.85184
-4.75693
-4.73372
-4.82863
-4.75693
-4.66302
-4.63981
-4.73372
-4.66302
-4.57009
-4.54688
-4.63981
-4.57009
-4.47814
-4.45493
-4.54688
-4.47814
-4.38719
-4.36398
-4.45493
-4.38719
-4.29722
-4.27401
-4.36398
-4.29722
-4.20824
-4.18503
-4.27401
-4.20824
-4.12025
-4.09704
-4.18503
-4.12025
-4.03325
-4.01004
-4.09704
-4.03325
-3.94723
-3.92402
-4.01004
-3.94723
-3.8622
-3.83899
-3.92402
-3.8622
-3.77816
-3.75495
-3.83899
-3.77816
-3.69511
-3.6719
-3.75495
-3.69511
-3.61304
-3.58983
-3.6719
-3.61304
-3.53196
-3.50875
-3.58983
-3.53196
-3.45187
-3.42866
-3.50875
-3.45187
-3.37277
-3.34956
-3.42866
-3.37277
-3.29465
-3.27144
-3.34956
-3.29465
-3.21752
-3.19432
-3.27144
-3.21752
-3.14138
-3.11817
-3.19432
-3.14138
-3.06623
-3.04302
-3.11817
-3.06623
-2.99207
-2.96886
-3.04302
-2.99207
-2.91889
-2.89568
-2.96886
-2.91889
-2.8467
-2.82349
-2.89568
-2.8467
-2.7755
-2.75229
-2.82349
-2.7755
-2.70529
-2.68208
-2.75229
-2.70529
-2.63606
-2.61285
-2.68208
-2.63606
-2.56782
-2.54461
-2.61285
-2.56782
-2.50057
-2.47736
-2.54461
-2.50057
-2.43431
-2.4111
-2.47736
-2.43431
-2.36903
-2.34582
-2.4111
-2.36903
-2.30474
-2.28153
-2.34582
-2.30474
-2.24144
-2.21823
-2.28153
-2.24144
-2.17913
-2.15592
-2.21823
-2.17913
-2.1178
-2.09459
-2.15592
-2.1178
-2.05746
-2.03426
-2.09459
-2.05746
-1.99812
-1.97491
-2.03426
-1.99812
-1.93975
-1.91654
-1.97491
-1.93975
-1.88238
-1.85917
-1.91654
-1.88238
-1.82599
-1.80278
-1.85917
-1.82599
-1.77059
-1.74738
-1.80278
-1.77059
-1.71618
-1.69297
-1.74738
-1.71618
-1.66276
-1.63955
-1.69297
-1.66276
-1.61032
-1.58711
-1.63955
-1.61032
-1.55887
-1.53566
-1.58711
-1.55887
-1.50841
-1.4852
-1.53566
-1.50841
-1.45894
-1.43573
-1.4852
-1.45894
-1.41045
-1.38724
-1.43573
-1.41045
-1.36295
-1.33974
-1.38724
-1.36295
-1.31644
-1.29323
-1.33974
-1.31644
-1.27092
-1.24771
-1.29323
-1.27092
-1.22638
-1.20317
-1.24771
-1.22638
-1.18284
-1.15963
-1.20317
-1.18284
-1.14028
-1.11707
-1.15963
-1.14028
-1.09871
-1.0755
-1.11707
-1.09871
-1.05812
-1.03491
-1.0755
-1.05812
-1.01852
-0.995314
-1.03491
-1.01852
-0.979915
-0.956705
-0.995314
-0.979915
-0.942293
-0.919083
-0.956705
-0.942293
-0.905659
-0.882449
-0.919083
-0.905659
-0.870013
-0.846803
-0.882449
-0.870013
-0.835354
-0.812145
-0.846803
-0.835354
-0.801684
-0.778474
-0.812145
-0.801684
-0.769
-0.74579
-0.778474
-0.769
-0.737305
-0.714095
-0.74579
-0.737305
-0.706597
-0.683387
-0.714095
-0.706597
-0.676876
-0.653667
-0.683387
-0.676876
-0.648144
-0.624934
-0.653667
-0.648144
-0.620399
-0.597189
-0.624934
-0.620399
-0.593641
-0.570432
-0.597189
-0.593641
-0.567872
-0.544662
-0.570432
-0.567872
-0.54309
-0.51988
-0.544662
-0.54309
-0.519295
-0.496086
-0.51988
-0.519295
-0.496489
-0.473279
-0.496086
-0.496489
-0.47467
-0.45146
-0.473279
-0.47467
-0.453838
-0.430628
-0.45146
-0.453838
-0.433994
-0.410785
-0.430628
-0.433994
-0.415138
-0.391928
-0.410785
-0.415138
-0.39727
-0.37406
-0.391928
-0.39727
-0.380389
-0.357179
-0.37406
-0.380389
-0.364496
-0.341286
-0.357179
-0.364496
-0.34959
-0.326381
-0.341286
-0.34959
-0.335673
-0.312463
-0.326381
-0.335673
-0.322742
-0.299533
-0.312463
-0.322742
-0.3108
-0.28759
-0.299533
-0.3108
-0.299845
-0.276635
-0.28759
-0.299845
-0.289878
-0.266668
-0.276635
-0.289878
-0.280898
-0.257688
-0.266668
-0.280898
-0.272906
-0.249697
-0.257688
-0.272906
-0.265902
-0.242692
-0.249697
-0.265902
-0.259886
-0.236676
-0.242692
-0.259886
-0.254857
-0.231647
-0.236676
-0.254857
-0.250815
-0.227605
-0.231647
-0.250815
-0.247762
-0.224552
-0.227605
-0.247762
-0.245696
-0.222486
-0.224552
-0.245696
-0.244617
-0.221408
-0.222486
-0.244617
-0.244527
-0.221317
-0.221408
-0.244527
-0.245424
-0.222214
-0.221317
-0.245424
-0.247308
-0.224098
-0.222214
-0.247308
-0.250181
-0.226971
-0.224098
-0.250181
-0.254041
-0.230831
-0.226971
-0.254041
-0.258888
-0.235678
-0.230831
-0.258888
-0.264723
-0.241514
-0.235678
-0.264723
-0.271546
-0.248336
-0.241514
-0.271546
-0.279357
-0.256147
-0.248336
-0.279357
-0.288155
-0.264945
-0.256147
-0.288155
-0.297941
-0.274731
-0.264945
-0.297941
-0.308715
-0.285505
-0.274731
-0.308715
-0.320476
-0.297266
-0.285505
-0.320476
-0.333225
-0.310015
-0.297266
-0.333225
-0.346961
-0.323751
-0.310015
-0.346961
-0.361685
-0.338475
-0.323751
-0.361685
-0.377397
-0.354187
-0.338475
-0.377397
-0.394096
-0.370887
-0.354187
-0.394096
-0.411784
-0.388574
-0.370887
-0.411784
-0.430458
-0.407248
-0.388574
-0.430458
-0.450121
-0.426911
-0.407248
-0.450121
-0.470771
-0.447561
-0.426911