# vtk DataFile Version 1.0
unstructured Grid
ASCII
DATASET UNSTRUCTURED_GRID
POINTS 23424 float 
0 0	 0.0
0.0222222 0	 0.0
0.0222222 0.0222222	 0.0
0 0.0222222	 0.0
0.0222222 0	 0.0
0.0444444 0	 0.0
0.0444444 0.0222222	 0.0
0.0222222 0.0222222	 0.0
0.0444444 0	 0.0
0.0666667 0	 0.0
0.0666667 0.0222222	 0.0
0.0444444 0.0222222	 0.0
0.0666667 0	 0.0
0.0888889 0	 0.0
0.0888889 0.0222222	 0.0
0.0666667 0.0222222	 0.0
0.0888889 0	 0.0
0.111111 0	 0.0
0.111111 0.0222222	 0.0
0.0888889 0.0222222	 0.0
0.111111 0	 0.0
0.133333 0	 0.0
0.133333 0.0222222	 0.0
0.111111 0.0222222	 0.0
0.133333 0	 0.0
0.155556 0	 0.0
0.155556 0.0222222	 0.0
0.133333 0.0222222	 0.0
0.155556 0	 0.0
0.177778 0	 0.0
0.177778 0.0222222	 0.0
0.155556 0.0222222	 0.0
0.177778 0	 0.0
0.2 0	 0.0
0.2 0.0222222	 0.0
0.177778 0.0222222	 0.0
0.2 0	 0.0
0.222222 0	 0.0
0.222222 0.0222222	 0.0
0.2 0.0222222	 0.0
0.222222 0	 0.0
0.244444 0	 0.0
0.244444 0.0222222	 0.0
0.222222 0.0222222	 0.0
0.244444 0	 0.0
0.266667 0	 0.0
0.266667 0.0222222	 0.0
0.244444 0.0222222	 0.0
0.266667 0	 0.0
0.288889 0	 0.0
0.288889 0.0222222	 0.0
0.266667 0.0222222	 0.0
0.288889 0	 0.0
0.311111 0	 0.0
0.311111 0.0222222	 0.0
0.288889 0.0222222	 0.0
0.311111 0	 0.0
0.333333 0	 0.0
0.333333 0.0222222	 0.0
0.311111 0.0222222	 0.0
0.333333 0	 0.0
0.355556 0	 0.0
0.355556 0.0222222	 0.0
0.333333 0.0222222	 0.0
0.355556 0	 0.0
0.377778 0	 0.0
0.377778 0.0222222	 0.0
0.355556 0.0222222	 0.0
0.377778 0	 0.0
0.4 0	 0.0
0.4 0.0222222	 0.0
0.377778 0.0222222	 0.0
0.4 0	 0.0
0.422222 0	 0.0
0.422222 0.0222222	 0.0
0.4 0.0222222	 0.0
0.422222 0	 0.0
0.444444 0	 0.0
0.444444 0.0222222	 0.0
0.422222 0.0222222	 0.0
0.444444 0	 0.0
0.466667 0	 0.0
0.466667 0.0222222	 0.0
0.444444 0.0222222	 0.0
0.466667 0	 0.0
0.488889 0	 0.0
0.488889 0.0222222	 0.0
0.466667 0.0222222	 0.0
0.488889 0	 0.0
0.511111 0	 0.0
0.511111 0.0222222	 0.0
0.488889 0.0222222	 0.0
0.511111 0	 0.0
0.533333 0	 0.0
0.533333 0.0222222	 0.0
0.511111 0.0222222	 0.0
0.533333 0	 0.0
0.555556 0	 0.0
0.555556 0.0222222	 0.0
0.533333 0.0222222	 0.0
0.555556 0	 0.0
0.577778 0	 0.0
0.577778 0.0222222	 0.0
0.555556 0.0222222	 0.0
0.577778 0	 0.0
0.6 0	 0.0
0.6 0.0222222	 0.0
0.577778 0.0222222	 0.0
0.6 0	 0.0
0.622222 0	 0.0
0.622222 0.0222222	 0.0
0.6 0.0222222	 0.0
0.622222 0	 0.0
0.644444 0	 0.0
0.644444 0.0222222	 0.0
0.622222 0.0222222	 0.0
0.644444 0	 0.0
0.666667 0	 0.0
0.666667 0.0222222	 0.0
0.644444 0.0222222	 0.0
0.666667 0	 0.0
0.688889 0	 0.0
0.688889 0.0222222	 0.0
0.666667 0.0222222	 0.0
0.688889 0	 0.0
0.711111 0	 0.0
0.711111 0.0222222	 0.0
0.688889 0.0222222	 0.0
0.711111 0	 0.0
0.733333 0	 0.0
0.733333 0.0222222	 0.0
0.711111 0.0222222	 0.0
0.733333 0	 0.0
0.755556 0	 0.0
0.755556 0.0222222	 0.0
0.733333 0.0222222	 0.0
0.755556 0	 0.0
0.777778 0	 0.0
0.777778 0.0222222	 0.0
0.755556 0.0222222	 0.0
0.777778 0	 0.0
0.8 0	 0.0
0.8 0.0222222	 0.0
0.777778 0.0222222	 0.0
0.8 0	 0.0
0.822222 0	 0.0
0.822222 0.0222222	 0.0
0.8 0.0222222	 0.0
0.822222 0	 0.0
0.844444 0	 0.0
0.844444 0.0222222	 0.0
0.822222 0.0222222	 0.0
0.844444 0	 0.0
0.866667 0	 0.0
0.866667 0.0222222	 0.0
0.844444 0.0222222	 0.0
0.866667 0	 0.0
0.888889 0	 0.0
0.888889 0.0222222	 0.0
0.866667 0.0222222	 0.0
0.888889 0	 0.0
0.911111 0	 0.0
0.911111 0.0222222	 0.0
0.888889 0.0222222	 0.0
0.911111 0	 0.0
0.933333 0	 0.0
0.933333 0.0222222	 0.0
0.911111 0.0222222	 0.0
0.933333 0	 0.0
0.955556 0	 0.0
0.955556 0.0222222	 0.0
0.933333 0.0222222	 0.0
0.955556 0	 0.0
0.977778 0	 0.0
0.977778 0.0222222	 0.0
0.955556 0.0222222	 0.0
0.977778 0	 0.0
1 0	 0.0
1 0.0222222	 0.0
0.977778 0.0222222	 0.0
1 0	 0.0
1.02222 0	 0.0
1.02222 0.0222222	 0.0
1 0.0222222	 0.0
1.02222 0	 0.0
1.04444 0	 0.0
1.04444 0.0222222	 0.0
1.02222 0.0222222	 0.0
1.04444 0	 0.0
1.06667 0	 0.0
1.06667 0.0222222	 0.0
1.04444 0.0222222	 0.0
1.06667 0	 0.0
1.08889 0	 0.0
1.08889 0.0222222	 0.0
1.06667 0.0222222	 0.0
1.08889 0	 0.0
1.11111 0	 0.0
1.11111 0.0222222	 0.0
1.08889 0.0222222	 0.0
1.11111 0	 0.0
1.13333 0	 0.0
1.13333 0.0222222	 0.0
1.11111 0.0222222	 0.0
1.13333 0	 0.0
1.15556 0	 0.0
1.15556 0.0222222	 0.0
1.13333 0.0222222	 0.0
1.15556 0	 0.0
1.17778 0	 0.0
1.17778 0.0222222	 0.0
1.15556 0.0222222	 0.0
1.17778 0	 0.0
1.2 0	 0.0
1.2 0.0222222	 0.0
1.17778 0.0222222	 0.0
1.2 0	 0.0
1.22222 0	 0.0
1.22222 0.0222222	 0.0
1.2 0.0222222	 0.0
1.22222 0	 0.0
1.24444 0	 0.0
1.24444 0.0222222	 0.0
1.22222 0.0222222	 0.0
1.24444 0	 0.0
1.26667 0	 0.0
1.26667 0.0222222	 0.0
1.24444 0.0222222	 0.0
1.26667 0	 0.0
1.28889 0	 0.0
1.28889 0.0222222	 0.0
1.26667 0.0222222	 0.0
1.28889 0	 0.0
1.31111 0	 0.0
1.31111 0.0222222	 0.0
1.28889 0.0222222	 0.0
1.31111 0	 0.0
1.33333 0	 0.0
1.33333 0.0222222	 0.0
1.31111 0.0222222	 0.0
1.33333 0	 0.0
1.35556 0	 0.0
1.35556 0.0222222	 0.0
1.33333 0.0222222	 0.0
1.35556 0	 0.0
1.37778 0	 0.0
1.37778 0.0222222	 0.0
1.35556 0.0222222	 0.0
1.37778 0	 0.0
1.4 0	 0.0
1.4 0.0222222	 0.0
1.37778 0.0222222	 0.0
1.4 0	 0.0
1.42222 0	 0.0
1.42222 0.0222222	 0.0
1.4 0.0222222	 0.0
1.42222 0	 0.0
1.44444 0	 0.0
1.44444 0.0222222	 0.0
1.42222 0.0222222	 0.0
1.44444 0	 0.0
1.46667 0	 0.0
1.46667 0.0222222	 0.0
1.44444 0.0222222	 0.0
1.46667 0	 0.0
1.48889 0	 0.0
1.48889 0.0222222	 0.0
1.46667 0.0222222	 0.0
1.48889 0	 0.0
1.51111 0	 0.0
1.51111 0.0222222	 0.0
1.48889 0.0222222	 0.0
1.51111 0	 0.0
1.53333 0	 0.0
1.53333 0.0222222	 0.0
1.51111 0.0222222	 0.0
1.53333 0	 0.0
1.55556 0	 0.0
1.55556 0.0222222	 0.0
1.53333 0.0222222	 0.0
1.55556 0	 0.0
1.57778 0	 0.0
1.57778 0.0222222	 0.0
1.55556 0.0222222	 0.0
1.57778 0	 0.0
1.6 0	 0.0
1.6 0.0222222	 0.0
1.57778 0.0222222	 0.0
1.6 0	 0.0
1.62222 0	 0.0
1.62222 0.0222222	 0.0
1.6 0.0222222	 0.0
1.62222 0	 0.0
1.64444 0	 0.0
1.64444 0.0222222	 0.0
1.62222 0.0222222	 0.0
1.64444 0	 0.0
1.66667 0	 0.0
1.66667 0.0222222	 0.0
1.64444 0.0222222	 0.0
1.66667 0	 0.0
1.68889 0	 0.0
1.68889 0.0222222	 0.0
1.66667 0.0222222	 0.0
1.68889 0	 0.0
1.71111 0	 0.0
1.71111 0.0222222	 0.0
1.68889 0.0222222	 0.0
1.71111 0	 0.0
1.73333 0	 0.0
1.73333 0.0222222	 0.0
1.71111 0.0222222	 0.0
1.73333 0	 0.0
1.75556 0	 0.0
1.75556 0.0222222	 0.0
1.73333 0.0222222	 0.0
1.75556 0	 0.0
1.77778 0	 0.0
1.77778 0.0222222	 0.0
1.75556 0.0222222	 0.0
1.77778 0	 0.0
1.8 0	 0.0
1.8 0.0222222	 0.0
1.77778 0.0222222	 0.0
1.8 0	 0.0
1.82222 0	 0.0
1.82222 0.0222222	 0.0
1.8 0.0222222	 0.0
1.82222 0	 0.0
1.84444 0	 0.0
1.84444 0.0222222	 0.0
1.82222 0.0222222	 0.0
1.84444 0	 0.0
1.86667 0	 0.0
1.86667 0.0222222	 0.0
1.84444 0.0222222	 0.0
1.86667 0	 0.0
1.88889 0	 0.0
1.88889 0.0222222	 0.0
1.86667 0.0222222	 0.0
1.88889 0	 0.0
1.91111 0	 0.0
1.91111 0.0222222	 0.0
1.88889 0.0222222	 0.0
1.91111 0	 0.0
1.93333 0	 0.0
1.93333 0.0222222	 0.0
1.91111 0.0222222	 0.0
1.93333 0	 0.0
1.95556 0	 0.0
1.95556 0.0222222	 0.0
1.93333 0.0222222	 0.0
1.95556 0	 0.0
1.97778 0	 0.0
1.97778 0.0222222	 0.0
1.95556 0.0222222	 0.0
1.97778 0	 0.0
2 0	 0.0
2 0.0222222	 0.0
1.97778 0.0222222	 0.0
2 0	 0.0
2.02222 0	 0.0
2.02222 0.0222222	 0.0
2 0.0222222	 0.0
2.02222 0	 0.0
2.04444 0	 0.0
2.04444 0.0222222	 0.0
2.02222 0.0222222	 0.0
2.04444 0	 0.0
2.06667 0	 0.0
2.06667 0.0222222	 0.0
2.04444 0.0222222	 0.0
2.06667 0	 0.0
2.08889 0	 0.0
2.08889 0.0222222	 0.0
2.06667 0.0222222	 0.0
2.08889 0	 0.0
2.11111 0	 0.0
2.11111 0.0222222	 0.0
2.08889 0.0222222	 0.0
2.11111 0	 0.0
2.13333 0	 0.0
2.13333 0.0222222	 0.0
2.11111 0.0222222	 0.0
2.13333 0	 0.0
2.15556 0	 0.0
2.15556 0.0222222	 0.0
2.13333 0.0222222	 0.0
2.15556 0	 0.0
2.17778 0	 0.0
2.17778 0.0222222	 0.0
2.15556 0.0222222	 0.0
2.17778 0	 0.0
2.2 0	 0.0
2.2 0.0222222	 0.0
2.17778 0.0222222	 0.0
2.2 0	 0.0
2.22222 0	 0.0
2.22222 0.0222222	 0.0
2.2 0.0222222	 0.0
2.22222 0	 0.0
2.24444 0	 0.0
2.24444 0.0222222	 0.0
2.22222 0.0222222	 0.0
2.24444 0	 0.0
2.26667 0	 0.0
2.26667 0.0222222	 0.0
2.24444 0.0222222	 0.0
2.26667 0	 0.0
2.28889 0	 0.0
2.28889 0.0222222	 0.0
2.26667 0.0222222	 0.0
2.28889 0	 0.0
2.31111 0	 0.0
2.31111 0.0222222	 0.0
2.28889 0.0222222	 0.0
2.31111 0	 0.0
2.33333 0	 0.0
2.33333 0.0222222	 0.0
2.31111 0.0222222	 0.0
2.33333 0	 0.0
2.35556 0	 0.0
2.35556 0.0222222	 0.0
2.33333 0.0222222	 0.0
2.35556 0	 0.0
2.37778 0	 0.0
2.37778 0.0222222	 0.0
2.35556 0.0222222	 0.0
2.37778 0	 0.0
2.4 0	 0.0
2.4 0.0222222	 0.0
2.37778 0.0222222	 0.0
2.4 0	 0.0
2.42222 0	 0.0
2.42222 0.0222222	 0.0
2.4 0.0222222	 0.0
2.42222 0	 0.0
2.44444 0	 0.0
2.44444 0.0222222	 0.0
2.42222 0.0222222	 0.0
2.44444 0	 0.0
2.46667 0	 0.0
2.46667 0.0222222	 0.0
2.44444 0.0222222	 0.0
2.46667 0	 0.0
2.48889 0	 0.0
2.48889 0.0222222	 0.0
2.46667 0.0222222	 0.0
2.48889 0	 0.0
2.51111 0	 0.0
2.51111 0.0222222	 0.0
2.48889 0.0222222	 0.0
2.51111 0	 0.0
2.53333 0	 0.0
2.53333 0.0222222	 0.0
2.51111 0.0222222	 0.0
2.53333 0	 0.0
2.55556 0	 0.0
2.55556 0.0222222	 0.0
2.53333 0.0222222	 0.0
2.55556 0	 0.0
2.57778 0	 0.0
2.57778 0.0222222	 0.0
2.55556 0.0222222	 0.0
2.57778 0	 0.0
2.6 0	 0.0
2.6 0.0222222	 0.0
2.57778 0.0222222	 0.0
2.6 0	 0.0
2.62222 0	 0.0
2.62222 0.0222222	 0.0
2.6 0.0222222	 0.0
2.62222 0	 0.0
2.64444 0	 0.0
2.64444 0.0222222	 0.0
2.62222 0.0222222	 0.0
2.64444 0	 0.0
2.66667 0	 0.0
2.66667 0.0222222	 0.0
2.64444 0.0222222	 0.0
2.66667 0	 0.0
2.68889 0	 0.0
2.68889 0.0222222	 0.0
2.66667 0.0222222	 0.0
2.68889 0	 0.0
2.71111 0	 0.0
2.71111 0.0222222	 0.0
2.68889 0.0222222	 0.0
2.71111 0	 0.0
2.73333 0	 0.0
2.73333 0.0222222	 0.0
2.71111 0.0222222	 0.0
2.73333 0	 0.0
2.75556 0	 0.0
2.75556 0.0222222	 0.0
2.73333 0.0222222	 0.0
2.75556 0	 0.0
2.77778 0	 0.0
2.77778 0.0222222	 0.0
2.75556 0.0222222	 0.0
2.77778 0	 0.0
2.8 0	 0.0
2.8 0.0222222	 0.0
2.77778 0.0222222	 0.0
2.8 0	 0.0
2.82222 0	 0.0
2.82222 0.0222222	 0.0
2.8 0.0222222	 0.0
2.82222 0	 0.0
2.84444 0	 0.0
2.84444 0.0222222	 0.0
2.82222 0.0222222	 0.0
2.84444 0	 0.0
2.86667 0	 0.0
2.86667 0.0222222	 0.0
2.84444 0.0222222	 0.0
2.86667 0	 0.0
2.88889 0	 0.0
2.88889 0.0222222	 0.0
2.86667 0.0222222	 0.0
2.88889 0	 0.0
2.91111 0	 0.0
2.91111 0.0222222	 0.0
2.88889 0.0222222	 0.0
2.91111 0	 0.0
[...]
POINT_DATA 23424
SCALARS levelset_first float
LOOKUP_TABLE default
-5.80963
-5.70599
-5.67982
-5.78346
-5.70599
-5.60334
-5.57717
-5.67982
-5.60334
-5.50168
-5.4755
-5.57717
-5.50168
-5.401
-5.37483
-5.4755
-5.401
-5.30131
-5.27514
-5.37483
-5.30131
-5.20261
-5.17644
-5.27514
-5.20261
-5.1049
-5.07872
-5.17644
-5.1049
-5.00817
-4.982
-5.07872
-5.00817
-4.91243
-4.88626
-4.982
-4.91243
-4.81768
-4.79151
-4.88626
-4.81768
-4.72392
-4.69775
-4.79151
-4.72392
-4.63114
-4.60497
-4.69775
-4.63114
-4.53936
-4.51318
-4.60497
-4.53936
-4.44856
-4.42238
-4.51318
-4.44856
-4.35874
-4.33257
-4.42238
-4.35874
-4.26992
-4.24375
-4.33257
-4.26992
-4.18208
-4.15591
-4.24375
-4.18208
-4.09523
-4.06906
-4.15591
-4.09523
-4.00937
-3.9832
-4.06906
-4.00937
-3.9245
-3.89833
-3.9832
-3.9245
-3.84061
-3.81444
-3.89833
-3.84061
-3.75771
-3.73154
-3.81444
-3.75771
-3.6758
-3.64963
-3.73154
-3.6758
-3.59488
-3.56871
-3.64963
-3.59488
-3.51494
-3.48877
-3.56871
-3.51494
-3.436
-3.40982
-3.48877
-3.436
-3.35804
-3.33186
-3.40982
-3.35804
-3.28106
-3.25489
-3.33186
-3.28106
-3.20508
-3.1789
-3.25489
-3.20508
-3.13008
-3.10391
-3.1789
-3.13008
-3.05607
-3.0299
-3.10391
-3.05607
-2.98305
-2.95688
-3.0299
-2.98305
-2.91101
-2.88484
-2.95688
-2.91101
-2.83997
-2.81379
-2.88484
-2.83997
-2.76991
-2.74374
-2.81379
-2.76991
-2.70084
-2.67466
-2.74374
-2.70084
-2.63275
-2.60658
-2.67466
-2.63275
-2.56566
-2.53948
-2.60658
-2.56566
-2.49955
-2.47338
-2.53948
-2.49955
-2.43443
-2.40825
-2.47338
-2.43443
-2.37029
-2.34412
-2.40825
-2.37029
-2.30715
-2.28098
-2.34412
-2.30715
-2.24499
-2.21882
-2.28098
-2.24499
-2.18382
-2.15765
-2.21882
-2.18382
-2.12364
-2.09747
-2.15765
-2.12364
-2.06444
-2.03827
-2.09747
-2.06444
-2.00624
-1.98006
-2.03827
-2.00624
-1.94902
-1.92284
-1.98006
-1.94902
-1.89278
-1.86661
-1.92284
-1.89278
-1.83754
-1.81137
-1.86661
-1.83754
-1.78328
-1.75711
-1.81137
-1.78328
-1.73001
-1.70384
-1.75711
-1.73001
-1.67773
-1.65156
-1.70384
-1.67773
-1.62644
-1.60027
-1.65156
-1.62644
-1.57613
-1.54996
-1.60027
-1.57613
-1.52682
-1.50064
-1.54996
-1.52682
-1.47848
-1.45231
-1.50064
-1.47848
-1.43114
-1.40497
-1.45231
-1.43114
-1.38479
-1.35861
-1.40497
-1.38479
-1.33942
-1.31325
-1.35861
-1.33942
-1.29504
-1.26887
-1.31325
-1.29504
-1.25165
-1.22547
-1.26887
-1.25165
-1.20924
-1.18307
-1.22547
-1.20924
-1.16782
-1.14165
-1.18307
-1.16782
-1.12739
-1.10122
-1.14165
-1.12739
-1.08795
-1.06178
-1.10122
-1.08795
-1.0495
-1.02333
-1.06178
-1.0495
-1.01203
-0.98586
-1.02333
-1.01203
-0.975554
-0.949381
-0.98586
-0.975554
-0.940062
-0.91389
-0.949381
-0.940062
-0.905559
-0.879386
-0.91389
-0.905559
-0.872043
-0.84587
-0.879386
-0.872043
-0.839515
-0.813342
-0.84587
-0.839515
-0.807974
-0.781801
-0.813342
-0.807974
-0.777421
-0.751249
-0.781801
-0.777421
-0.747856
-0.721683
-0.751249
-0.747856
-0.719278
-0.693106
-0.721683
-0.719278
-0.691689
-0.665516
-0.693106
-0.691689
-0.665086
-0.638913
-0.665516
-0.665086
-0.639472
-0.613299
-0.638913
-0.639472
-0.614845
-0.588672
-0.613299
-0.614845
-0.591205
-0.565032
-0.588672
-0.591205
-0.568554
-0.542381
-0.565032
-0.568554
-0.54689
-0.520717
-0.542381
-0.54689
-0.526213
-0.50004
-0.520717
-0.526213
-0.506525
-0.480352
-0.50004
-0.506525
-0.487823
-0.461651
-0.480352
-0.487823
-0.47011
-0.443937
-0.461651
-0.47011
-0.453384
-0.427212
-0.443937
-0.453384
-0.437646
-0.411473
-0.427212
-0.437646
-0.422896
-0.396723
-0.411473
-0.422896
-0.409133
-0.38296
-0.396723
-0.409133
-0.396358
-0.370185
-0.38296
-0.396358
-0.38457
-0.358398
-0.370185
-0.38457
-0.373771
-0.347598
-0.358398
-0.373771
-0.363958
-0.337786
-0.347598
-0.363958
-0.355134
-0.328961
-0.337786
-0.355134
-0.347297
-0.321124
-0.328961
-0.347297
-0.340448
-0.314275
-0.321124
-0.340448
-0.334586
-0.308413
-0.314275
-0.334586
-0.329712
-0.30354
-0.308413
-0.329712
-0.325826
-0.299653
-0.30354
-0.325826
-0.322928
-0.296755
-0.299653
-0.322928
-0.321017
-0.294844
-0.296755
-0.321017
-0.320093
-0.293921
-0.294844
-0.320093
-0.320158
-0.293985
-0.293921
-0.320158
-0.32121
-0.295037
-0.293985
-0.32121
-0.323249
-0.297077
-0.295037
-0.323249
-0.326277
-0.300104
-0.297077
-0.326277
-0.330292
-0.304119
-0.300104
-0.330292
-0.335294
-0.309122
-0.304119
-0.335294
-0.341285
-0.315112
-0.309122
-0.341285
-0.348263
-0.32209
-0.315112
-0.348263
-0.356228
-0.330055
-0.32209
-0.356228
-0.365182
-0.339009
-0.330055
-0.365182
-0.375122
-0.34895
-0.339009
-0.375122
-0.386051
-0.359878
-0.34895
-0.386051
-0.397967
-0.371794
-0.359878
-0.397967
-0.410871
-0.384698
-0.371794
-0.410871
-0.424763
-0.39859
-0.384698
-0.424763
-0.439642
-0.413469
-0.39859
-0.439642
-0.455509
-0.429336
-0.413469
-0.455509
-0.472363
-0.44619
-0.429336
-0.472363
-0.490205
-0.464033
-0.44619
-0.490205
-0.509035
-0.482862
-0.464033
-0.509035
-0.528853
-0.50268
-0.482862
-0.528853
-0.549658
-0.523485
-0.50268
-0.549658
-0.571451
-0.545278
-0.523485
-0.571451
-0.594231
-0.568058
-0.545278
-0.594231
-0.617999
-0.591826
-0.568058
-0.617999
-0.642755
-0.616582
-0.591826
-0.642755
-0.668498
-0.642325
-0.616582
-0.668498
-0.695229
-0.669056
-0.642325
-0.695229
-0.722948
-0.696775
-0.669056
-0.722948
-0.751654
-0.725481
-0.696775
-5.78346
-5.67982
-5.65463
-5.75827
-5.67982
-5.57717
-5.55198
-5.65463
-5.57717
-5.4755
-5.45032
-5.55198
-5.4755
-5.37483
-5.34964
-5.45032
-5.37483
-5.27514
-5.24995
-5.34964
-5.27514
-5.17644
-5.15125
-5.24995
-5.17644
-5.07872
-5.05354
-5.15125
-5.07872
-4.982
-4.95681
-5.05354
-4.982
-4.88626
-4.86107
-4.95681
-4.88626
-4.79151
-4.76632
-4.86107
-4.79151
-4.69775
-4.67256
-4.76632
-4.69775
-4.60497
-4.57979
-4.67256
-4.60497
-4.51318
-4.488
-4.57979
-4.51318
-4.42238
-4.3972
-4.488
-4.42238
-4.33257
-4.30739
-4.3972
-4.33257
-4.24375
-4.21856
-4.30739
-4.24375
-4.15591
-4.13072
-4.21856
-4.15591
-4.06906
-4.04388
-4.13072
-4.06906
-3.9832
-3.95801
-4.04388
-3.9832
-3.89833
-3.87314
-3.95801
-3.89833
-3.81444
-3.78925
-3.87314
-3.81444
-3.73154
-3.70636
-3.78925
-3.73154
-3.64963
-3.62444
-3.70636
-3.64963
-3.56871
-3.54352
-3.62444
-3.56871
-3.48877
-3.46359
-3.54352
-3.48877
-3.40982
-3.38464
-3.46359
-3.40982
-3.33186
-3.30668
-3.38464
-3.33186
-3.25489
-3.2297
-3.30668
-3.25489
-3.1789
-3.15372
-3.2297
-3.1789
-3.10391
-3.07872
-3.15372
-3.10391
-3.0299
-3.00471
-3.07872
-3.0299
-2.95688
-2.93169
-3.00471
-2.95688
-2.88484
-2.85966
-2.93169
-2.88484
-2.81379
-2.78861
-2.85966
-2.81379
-2.74374
-2.71855
-2.78861
-2.74374
-2.67466
-2.64948
-2.71855
-2.67466
-2.60658
-2.58139
-2.64948
-2.60658
-2.53948
-2.5143
-2.58139
-2.53948
-2.47338
-2.44819
-2.5143
-2.47338
-2.40825
-2.38307
-2.44819
-2.40825
-2.34412
-2.31894
-2.38307
-2.34412
-2.28098
-2.25579
-2.31894
-2.28098
-2.21882
-2.19363
-2.25579
-2.21882
-2.15765
-2.13246
-2.19363
-2.15765
-2.09747
-2.07228
-2.13246
-2.09747
-2.03827
-2.01309
-2.07228
-2.03827
-1.98006
-1.95488
-2.01309
-1.98006
-1.92284
-1.89766
-1.95488
-1.92284
-1.86661
-1.84143
-1.89766
-1.86661
-1.81137
-1.78618
-1.84143
-1.81137
-1.75711
-1.73193
-1.78618
-1.75711
-1.70384
-1.67866
-1.73193
-1.70384
-1.65156
-1.62638
-1.67866
-1.65156
-1.60027
-1.57508
-1.62638
-1.60027
-1.54996
-1.52478
-1.57508
-1.54996
-1.50064
-1.47546
-1.52478
-1.50064
-1.45231
-1.42713
-1.47546
-1.45231
-1.40497
-1.37978
-1.42713
-1.40497
-1.35861
-1.33343
-1.37978
-1.35861
-1.31325
-1.28806
-1.33343
-1.31325
-1.26887
-1.24368
-1.28806
-1.26887
-1.22547
-1.20029
-1.24368
-1.22547
-1.18307
-1.15788
-1.20029
-1.18307
-1.14165
-1.11647
-1.15788
-1.14165
-1.10122
-1.07604
-1.11647
-1.10122
-1.06178
-1.0366
-1.07604
-1.06178
-1.02333
-0.998141
-1.0366
-1.02333
-0.98586
-0.960674
-0.998141
-0.98586
-0.949381
-0.924196
-0.960674
-0.949381
-0.91389
-0.888704
-0.924196
-0.91389
-0.879386
-0.854201
-0.888704
-0.879386
-0.84587
-0.820685
-0.854201
-0.84587
-0.813342
-0.788157
-0.820685
-0.813342
-0.781801
-0.756616
-0.788157
-0.781801
-0.751249
-0.726063
-0.756616
-0.751249
-0.721683
-0.696498
-0.726063
-0.721683
-0.693106
-0.66792
-0.696498
-0.693106
-0.665516
-0.640331
-0.66792
-0.665516
-0.638913
-0.613728
-0.640331
-0.638913
-0.613299
-0.588114
-0.613728
-0.613299
-0.588672
-0.563487
-0.588114
-0.588672
-0.565032
-0.539847
-0.563487
-0.565032
-0.542381
-0.517196
-0.539847
-0.542381
-0.520717
-0.495532
-0.517196
-0.520717
-0.50004
-0.474855
-0.495532
-0.50004
-0.480352
-0.455167
-0.474855
-0.480352
-0.461651
-0.436465
-0.455167
-0.461651
-0.443937
-0.418752
-0.436465
-0.443937
-0.427212
-0.402026
-0.418752
-0.427212
-0.411473
-0.386288
-0.402026
-0.411473
-0.396723
-0.371538
-0.386288
-0.396723
-0.38296
-0.357775
-0.371538
-0.38296
-0.370185
-0.345
-0.357775
-0.370185
-0.358398
-0.333212
-0.345
-0.358398
-0.347598
-0.322413
-0.333212
-0.347598
-0.337786
-0.3126
-0.322413
-0.337786
-0.328961
-0.303776
-0.3126
-0.328961
-0.321124
-0.295939
-0.303776
-0.321124
-0.314275
-0.28909
-0.295939
-0.314275
-0.308413
-0.283228
-0.28909
-0.308413
-0.30354
-0.278354
-0.283228
-0.30354
-0.299653
-0.274468
-0.278354
-0.299653
-0.296755
-0.27157
-0.274468
-0.296755
-0.294844
-0.269659
-0.27157
-0.294844
-0.293921
-0.268735
-0.269659
-0.293921
-0.293985
-0.2688
-0.268735
-0.293985
-0.295037
-0.269852
-0.2688
-0.295037
-0.297077
-0.271891
-0.269852
-0.297077
-0.300104
-0.274919
-0.271891
-0.300104
-0.304119
-0.278934
-0.274919
-0.304119
-0.309122
-0.283936
-0.278934
-0.309122
-0.315112
-0.289927
-0.283936
-0.315112
-0.32209
-0.296905
-0.289927
-0.32209
-0.330055
-0.30487
-0.296905
-0.330055
-0.339009
-0.313824
-0.30487
-0.339009
-0.34895
-0.323764
-0.313824
-0.34895
-0.359878
-0.334693
-0.323764
-0.359878
-0.371794
-0.346609
-0.334693
-0.371794
-0.384698
-0.359513
-0.346609
-0.384698
-0.39859
-0.373405
-0.359513
-0.39859
-0.413469
-0.388284
-0.373405
-0.413469
-0.429336
-0.404151
-0.388284
-0.429336
-0.44619
-0.421005
-0.404151
-0.44619
-0.464033
-0.438847
-0.421005
-0.464033
-0.482862
-0.457677
-0.438847
-0.482862
-0.50268
-0.477495
-0.457677
-0.50268
-0.523485
-0.4983
-0.477495
-0.523485
-0.545278
-0.520093
-0.4983
-0.545278
-0.568058
-0.542873
-0.520093
-0.568058
-0.591826
-0.566641
-0.542873
-0.591826
-0.616582
-0.591397
-0.566641
-0.616582
-0.642325
-0.61714
-0.591397
-0.642325
-0.669056
-0.643871
-0.61714
-0.669056
-0.696775
-0.67159
-0.643871
-0.696775
-0.725481
-0.700296
-0.67159
-5.75827
-5.65463
-5.63044
-5.73407
-5.65463
-5.55198
-5.52778
-5.63044
-5.55198
-5.45032
-5.42612
-5.52778
-5.45032
-5.34964
-5.32544
-5.42612
-5.34964
-5.24995
-5.22575
-5.32544
-5.24995
-5.15125
-5.12705
-5.22575
-5.15125
-5.05354
-5.02934
-5.12705
-5.05354
-4.95681
-4.93261
-5.02934
-4.95681
-4.86107
-4.83688
-4.93261
-4.86107
-4.76632
-4.74213
-4.83688
-4.76632
-4.67256
-4.64836
-4.74213
-4.67256
-4.57979
-4.55559
-4.64836
-4.57979
-4.488
-4.4638
-4.55559
-4.488
-4.3972
-4.373
-4.4638
-4.3972
-4.30739
-4.28319
-4.373
-4.30739
-4.21856
-4.19436
-4.28319
-4.21856
-4.13072
-4.10653
-4.19436
-4.13072
-4.04388
-4.01968
-4.10653
-4.04388
-3.95801
-3.93382
-4.01968
-3.95801
-3.87314
-3.84894
-3.93382
-3.87314
-3.78925
-3.76506
-3.84894
-3.78925
-3.70636
-3.68216
-3.76506
-3.70636
-3.62444
-3.60025
-3.68216
-3.62444
-3.54352
-3.51932
-3.60025
-3.54352
-3.46359
-3.43939
-3.51932
-3.46359
-3.38464
-3.36044
-3.43939
-3.38464
-3.30668
-3.28248
-3.36044
-3.30668
-3.2297
-3.20551
-3.28248
-3.2297
-3.15372
-3.12952
-3.20551
-3.15372
-3.07872
-3.05452
-3.12952
-3.07872
-3.00471
-2.98051
-3.05452
-3.00471
-2.93169
-2.90749
-2.98051
-2.93169
-2.85966
-2.83546
-2.90749
-2.85966
-2.78861
-2.76441
-2.83546
-2.78861
-2.71855
-2.69435
-2.76441
-2.71855
-2.64948
-2.62528
-2.69435
-2.64948
-2.58139
-2.5572
-2.62528
-2.58139
-2.5143
-2.4901
-2.5572
-2.5143
-2.44819
-2.42399
-2.4901
-2.44819
-2.38307
-2.35887
-2.42399
-2.38307
-2.31894
-2.29474
-2.35887
-2.31894
-2.25579
-2.23159
-2.29474
-2.25579
-2.19363
-2.16944
-2.23159
-2.19363
-2.13246
-2.10827
-2.16944
-2.13246
-2.07228
-2.04808
-2.10827
-2.07228
-2.01309
-1.98889
-2.04808
-2.01309
-1.95488
-1.93068
-1.98889
-1.95488
-1.89766
-1.87346
-1.93068
-1.89766
-1.84143
-1.81723
-1.87346
-1.84143
-1.78618
-1.76198
-1.81723
-1.78618
-1.73193
-1.70773
-1.76198
-1.73193
-1.67866
-1.65446
-1.70773
-1.67866
-1.62638
-1.60218
-1.65446
-1.62638
-1.57508
-1.55088
-1.60218
-1.57508
-1.52478
-1.50058
-1.55088
-1.52478
-1.47546
-1.45126
-1.50058
-1.47546
-1.42713
-1.40293
-1.45126
-1.42713
-1.37978
-1.35559
-1.40293
-1.37978
-1.33343
-1.30923
-1.35559
-1.33343
-1.28806
-1.26386
-1.30923
-1.28806
-1.24368
-1.21948
-1.26386
-1.24368
-1.20029
-1.17609
-1.21948
-1.20029
-1.15788
-1.13369
-1.17609
-1.15788
-1.11647
-1.09227
-1.13369
-1.11647
-1.07604
-1.05184
-1.09227
-1.07604
-1.0366
-1.0124
-1.05184
-1.0366
-0.998141
-0.973943
-1.0124
-0.998141
-0.960674
-0.936477
-0.973943
-0.960674
-0.924196
-0.899998
-0.936477
-0.924196
-0.888704
-0.864507
-0.899998
-0.888704
-0.854201
-0.830003
-0.864507
-0.854201
-0.820685
-0.796487
-0.830003
-0.820685
-0.788157
-0.763959
-0.796487
-0.788157
-0.756616
-0.732419
-0.763959
-0.756616
-0.726063
-0.701866
-0.732419
-0.726063
-0.696498
-0.672301
-0.701866
-0.696498
-0.66792
-0.643723
-0.672301
-0.66792
-0.640331
-0.616133
-0.643723
-0.640331
-0.613728
-0.589531
-0.616133
-0.613728
-0.588114
-0.563916
-0.589531
-0.588114
-0.563487
-0.539289
-0.563916
-0.563487
-0.539847
-0.51565
-0.539289
-0.539847
-0.517196
-0.492998
-0.51565
-0.517196
-0.495532
-0.471334
-0.492998
-0.495532
-0.474855
-0.450658
-0.471334
-0.474855
-0.455167
-0.430969
-0.450658
-0.455167
-0.436465
-0.412268
-0.430969
-0.436465
-0.418752
-0.394555
-0.412268
-0.418752
-0.402026
-0.377829
-0.394555
-0.402026
-0.386288
-0.362091
-0.377829
-0.386288
-0.371538
-0.34734
-0.362091
-0.371538
-0.357775
-0.333577
-0.34734
-0.357775
-0.345
-0.320802
-0.333577
-0.345
-0.333212
-0.309015
-0.320802
-0.333212
-0.322413
-0.298215
-0.309015
-0.322413
-0.3126
-0.288403
-0.298215
-0.3126
-0.303776
-0.279578
-0.288403
-0.303776
-0.295939
-0.271742
-0.279578
-0.295939
-0.28909
-0.264892
-0.271742
-0.28909
-0.283228
-0.259031
-0.264892
-0.283228
-0.278354
-0.254157
-0.259031
-0.278354
-0.274468
-0.250271
-0.254157
-0.274468
-0.27157
-0.247372
-0.250271
-0.27157
-0.269659
-0.245461
-0.247372
-0.269659
-0.268735
-0.244538
-0.245461
-0.268735
-0.2688
-0.244602
-0.244538
-0.2688
-0.269852
-0.245654
-0.244602
-0.269852
-0.271891
-0.247694
-0.245654
-0.271891
-0.274919
-0.250721
-0.247694
-0.274919
-0.278934
-0.254736
-0.250721
-0.278934
-0.283936
-0.259739
-0.254736
-0.283936
-0.289927
-0.265729
-0.259739
-0.289927
-0.296905
-0.272707
-0.265729
-0.296905
-0.30487
-0.280673
-0.272707
-0.30487
-0.313824
-0.289626
-0.280673
-0.313824
-0.323764
-0.299567
-0.289626
-0.323764
-0.334693
-0.310496
-0.299567
-0.334693
-0.346609
-0.322412
-0.310496
-0.346609
-0.359513
-0.335316
-0.322412
-0.359513
-0.373405
-0.349207
-0.335316
-0.373405
-0.388284
-0.364086
-0.349207
-0.388284
-0.404151
-0.379953
-0.364086
-0.404151
-0.421005
-0.396808
-0.379953
-0.421005
-0.438847
-0.41465
-0.396808
-0.438847
-0.457677
-0.43348
-0.41465
-0.457677
-0.477495
-0.453297
-0.43348
-0.477495
-0.4983
-0.474102
-0.453297
-0.4983
-0.520093
-0.495895
-0.474102
-0.520093
-0.542873
-0.518675
-0.495895
-0.542873
-0.566641
-0.542444
-0.518675
-0.566641
-0.591397
-0.567199
-0.542444
-0.591397
-0.61714
-0.592943
-0.567199
-0.61714
-0.643871
-0.619674
-0.592943
-0.643871
-0.67159
-0.647392
-0.619674
-0.67159
-0.700296
-0.676099
-0.647392
-5.73407
-5.63044
-5.60723
-5.71086
-5.63044
-5.52778
-5.50457
-5.60723
-5.52778
-5.42612
-5.40291
-5.50457
-5.42612
-5.32544
-5.30223
-5.40291
-5.32544
-5.22575
-5.20254
-5.30223
-5.22575
-5.12705
-5.10384
-5.20254
-5.12705
-5.02934
-5.00613
-5.10384
-5.02934
-4.93261
-4.9094
-5.00613
-4.93261
-4.83688
-4.81367
-4.9094
-4.83688
-4.74213
-4.71892
-4.81367
-4.74213
-4.64836
-4.62515
-4.71892
-4.64836
-4.55559
-4.53238
-4.62515
-4.55559
-4.4638
-4.44059
-4.53238
-4.4638
-4.373
-4.34979
-4.44059
-4.373
-4.28319
-4.25998
-4.34979
-4.28319
-4.19436
-4.17115
-4.25998
-4.19436
-4.10653
-4.08332
-4.17115
-4.10653
-4.01968
-3.99647
-4.08332
-4.01968
-3.93382
-3.91061
-3.99647
-3.93382
-3.84894
-3.82573
-3.91061
-3.84894
-3.76506
-3.74185
-3.82573
-3.76506
-3.68216
-3.65895
-3.74185
-3.68216
-3.60025
-3.57704
-3.65895
-3.60025
-3.51932
-3.49611
-3.57704
-3.51932
-3.43939
-3.41618
-3.49611
-3.43939
-3.36044
-3.33723
-3.41618
-3.36044
-3.28248
-3.25927
-3.33723
-3.28248
-3.20551
-3.1823
-3.25927
-3.20551
-3.12952
-3.10631
-3.1823
-3.12952
-3.05452
-3.03131
-3.10631
-3.05452
-2.98051
-2.9573
-3.03131
-2.98051
-2.90749
-2.88428
-2.9573
-2.90749
-2.83546
-2.81225
-2.88428
-2.83546
-2.76441
-2.7412
-2.81225
-2.76441
-2.69435
-2.67114
-2.7412
-2.69435
-2.62528
-2.60207
-2.67114
-2.62528
-2.5572
-2.53399
-2.60207
-2.5572
-2.4901
-2.46689
-2.53399
-2.4901
-2.42399
-2.40078
-2.46689
-2.42399
-2.35887
-2.33566
-2.40078
-2.35887
-2.29474
-2.27153
-2.33566
-2.29474
-2.23159
-2.20838
-2.27153
-2.23159
-2.16944
-2.14623
-2.20838
-2.16944
-2.10827
-2.08506
-2.14623
-2.10827
-2.04808
-2.02487
-2.08506
-2.04808
-1.98889
-1.96568
-2.02487
-1.98889
-1.93068
-1.90747
-1.96568
-1.93068
-1.87346
-1.85025
-1.90747
-1.87346
-1.81723
-1.79402
-1.85025
-1.81723
-1.76198
-1.73877
-1.79402
-1.76198
-1.70773
-1.68452
-1.73877
-1.70773
-1.65446
-1.63125
-1.68452
-1.65446
-1.60218
-1.57897
-1.63125
-1.60218
-1.55088
-1.52767
-1.57897
-1.55088
-1.50058
-1.47737
-1.52767
-1.50058
-1.45126
-1.42805
-1.47737
-1.45126
-1.40293
-1.37972
-1.42805
-1.40293
-1.35559
-1.33238
-1.37972
-1.35559
-1.30923
-1.28602
-1.33238
-1.30923
-1.26386
-1.24065
-1.28602
-1.26386
-1.21948
-1.19627
-1.24065
-1.21948
-1.17609
-1.15288
-1.19627
-1.17609
-1.13369
-1.11048
-1.15288
-1.13369
-1.09227
-1.06906
-1.11048
-1.09227
-1.05184
-1.02863
-1.06906
-1.05184
-1.0124
-0.989188
-1.02863
-1.0124
-0.973943
-0.950734
-0.989188
-0.973943
-0.936477
-0.913267
-0.950734
-0.936477
-0.899998
-0.876788
-0.913267
-0.899998
-0.864507
-0.841297
-0.876788
-0.864507
-0.830003
-0.806793
-0.841297
-0.830003
-0.796487
-0.773278
-0.806793
-0.796487
-0.763959
-0.740749
-0.773278
-0.763959
-0.732419
-0.709209
-0.740749
-0.732419
-0.701866
-0.678656
-0.709209
-0.701866
-0.672301
-0.649091
-0.678656
-0.672301
-0.643723
-0.620513
-0.649091
-0.643723
-0.616133
-0.592923
-0.620513
-0.616133
-0.589531
-0.566321
-0.592923
-0.589531
-0.563916
-0.540706
-0.566321
-0.563916
-0.539289
-0.516079
-0.540706
-0.539289
-0.51565
-0.49244
-0.516079
-0.51565
-0.492998
-0.469788
-0.49244
-0.492998
-0.471334
-0.448124
-0.469788
-0.471334
-0.450658
-0.427448
-0.448124
-0.450658
-0.430969
-0.407759
-0.427448
-0.430969
-0.412268
-0.389058
-0.407759
-0.412268
-0.394555
-0.371345
-0.389058
-0.394555
-0.377829
-0.354619
-0.371345
-0.377829
-0.362091
-0.338881
-0.354619
-0.362091
-0.34734
-0.32413
-0.338881
-0.34734
-0.333577
-0.310368
-0.32413
-0.333577
-0.320802
-0.297592
-0.310368
-0.320802
-0.309015
-0.285805
-0.297592
-0.309015
-0.298215
-0.275005
-0.285805
-0.298215
-0.288403
-0.265193
-0.275005
-0.288403
-0.279578
-0.256368
-0.265193
-0.279578
-0.271742
-0.248532
-0.256368
-0.271742
-0.264892
-0.241682
-0.248532
-0.264892
-0.259031
-0.235821
-0.241682
-0.259031
-0.254157
-0.230947
-0.235821
-0.254157
-0.250271
-0.227061
-0.230947
-0.250271
-0.247372
-0.224162
-0.227061
-0.247372
-0.245461
-0.222251
-0.224162
-0.245461
-0.244538
-0.221328
-0.222251
-0.244538
-0.244602
-0.221392
-0.221328
-0.244602
-0.245654
-0.222444
-0.221392
-0.245654
-0.247694
-0.224484
-0.222444
-0.247694
-0.250721
-0.227511
-0.224484
-0.250721
-0.254736
-0.231526
-0.227511
-0.254736
-0.259739
-0.236529
-0.231526
-0.259739
-0.265729
-0.242519
-0.236529
-0.265729
-0.272707
-0.249497
-0.242519
-0.272707
-0.280673
-0.257463
-0.249497
-0.280673
-0.289626
-0.266416
-0.257463
-0.289626
-0.299567
-0.276357
-0.266416
-0.299567
-0.310496
-0.287286
-0.276357
-0.310496
-0.322412
-0.299202
-0.287286
-0.322412
-0.335316
-0.312106
-0.299202
-0.335316
-0.349207
-0.325997
-0.312106
-0.349207
-0.364086
-0.340876
-0.325997
-0.364086
-0.379953
-0.356743
-0.340876
-0.379953
-0.396808
-0.373598
-0.356743
-0.396808
-0.41465
-0.39144
-0.373598
-0.41465
-0.43348
-0.41027
-0.39144
-0.43348
-0.453297
-0.430087