# vtk DataFile Version 1.0
unstructured Grid
ASCII
DATASET UNSTRUCTURED_GRID
POINTS 23424 float 
0 0	 0.0
0.0222222 0	 0.0
0.0222222 0.0222222	 0.0
0 0.0222222	 0.0
0.0222222 0	 0.0
0.0444444 0	 0.0
0.0444444 0.0222222	 0.0
0.0222222 0.0222222	 0.0
0.0444444 0	 0.0
0.0666667 0	 0.0
0.0666667 0.0222222	 0.0
0.0444444 0.0222222	 0.0
0.0666667 0	 0.0
0.0888889 0	 0.0
0.0888889 0.0222222	 0.0
0.0666667 0.0222222	 0.0
0.0888889 0	 0.0
0.111111 0	 0.0
0.111111 0.0222222	 0.0
0.0888889 0.0222222	 0.0
0.111111 0	 0.0
0.133333 0	 0.0
0.133333 0.0222222	 0.0
0.111111 0.0222222	 0.0
0.133333 0	 0.0
0.155556 0	 0.0
0.155556 0.0222222	 0.0
0.133333 0.0222222	 0.0
0.155556 0	 0.0
0.177778 0	 0.0
0.177778 0.0222222	 0.0
0.155556 0.0222222	 0.0
0.177778 0	 0.0
0.2 0	 0.0
0.2 0.0222222	 0.0
0.177778 0.0222222	 0.0
0.2 0	 0.0
0.222222 0	 0.0
0.222222 0.0222222	 0.0
0.2 0.0222222	 0.0
0.222222 0	 0.0
0.244444 0	 0.0
0.244444 0.0222222	 0.0
0.222222 0.0222222	 0.0
0.244444 0	 0.0
0.266667 0	 0.0
0.266667 0.0222222	 0.0
0.244444 0.0222222	 0.0
0.266667 0	 0.0
0.288889 0	 0.0
0.288889 0.0222222	 0.0
0.266667 0.0222222	 0.0
0.288889 0	 0.0
0.311111 0	 0.0
0.311111 0.0222222	 0.0
0.288889 0.0222222	 0.0
0.311111 0	 0.0
0.333333 0	 0.0
0.333333 0.0222222	 0.0
0.311111 0.0222222	 0.0
0.333333 0	 0.0
0.355556 0	 0.0
0.355556 0.0222222	 0.0
0.333333 0.0222222	 0.0
0.355556 0	 0.0
0.377778 0	 0.0
0.377778 0.0222222	 0.0
0.355556 0.0222222	 0.0
0.377778 0	 0.0
0.4 0	 0.0
0.4 0.0222222	 0.0
0.377778 0.0222222	 0.0
0.4 0	 0.0
0.422222 0	 0.0
0.422222 0.0222222	 0.0
0.4 0.0222222	 0.0
0.422222 0	 0.0
0.444444 0	 0.0
0.444444 0.0222222	 0.0
0.422222 0.0222222	 0.0
0.444444 0	 0.0
0.466667 0	 0.0
0.466667 0.0222222	 0.0
0.444444 0.0222222	 0.0
0.466667 0	 0.0
0.488889 0	 0.0
0.488889 0.0222222	 0.0
0.466667 0.0222222	 0.0
0.488889 0	 0.0
0.511111 0	 0.0
0.511111 0.0222222	 0.0
0.488889 0.0222222	 0.0
0.511111 0	 0.0
0.533333 0	 0.0
0.533333 0.0222222	 0.0
0.511111 0.0222222	 0.0
0.533333 0	 0.0
0.555556 0	 0.0
0.555556 0.0222222	 0.0
0.533333 0.0222222	 0.0
0.555556 0	 0.0
0.577778 0	 0.0
0.577778 0.0222222	 0.0
0.555556 0.0222222	 0.0
0.577778 0	 0.0
0.6 0	 0.0
0.6 0.0222222	 0.0
0.577778 0.0222222	 0.0
0.6 0	 0.0
0.622222 0	 0.0
0.622222 0.0222222	 0.0
0.6 0.0222222	 0.0
0.622222 0	 0.0
0.644444 0	 0.0
0.644444 0.0222222	 0.0
0.622222 0.0222222	 0.0
0.644444 0	 0.0
0.666667 0	 0.0
0.666667 0.0222222	 0.0
0.644444 0.0222222	 0.0
0.666667 0	 0.0
0.688889 0	 0.0
0.688889 0.0222222	 0.0
0.666667 0.0222222	 0.0
0.688889 0	 0.0
0.711111 0	 0.0
0.711111 0.0222222	 0.0
0.688889 0.0222222	 0.0
0.711111 0	 0.0
0.733333 0	 0.0
0.733333 0.0222222	 0.0
0.711111 0.0222222	 0.0
0.733333 0	 0.0
0.755556 0	 0.0
0.755556 0.0222222	 0.0
0.733333 0.0222222	 0.0
0.755556 0	 0.0
0.777778 0	 0.0
0.777778 0.0222222	 0.0
0.755556 0.0222222	 0.0
0.777778 0	 0.0
0.8 0	 0.0
0.8 0.0222222	 0.0
0.777778 0.0222222	 0.0
0.8 0	 0.0
0.822222 0	 0.0
0.822222 0.0222222	 0.0
0.8 0.0222222	 0.0
0.822222 0	 0.0
0.844444 0	 0.0
0.844444 0.0222222	 0.0
0.822222 0.0222222	 0.0
0.844444 0	 0.0
0.866667 0	 0.0
0.866667 0.0222222	 0.0
0.844444 0.0222222	 0.0
0.866667 0	 0.0
0.888889 0	 0.0
0.888889 0.0222222	 0.0
0.866667 0.0222222	 0.0
0.888889 0	 0.0
0.911111 0	 0.0
0.911111 0.0222222	 0.0
0.888889 0.0222222	 0.0
0.911111 0	 0.0
0.933333 0	 0.0
0.933333 0.0222222	 0.0
0.911111 0.0222222	 0.0
0.933333 0	 0.0
0.955556 0	 0.0
0.955556 0.0222222	 0.0
0.933333 0.0222222	 0.0
0.955556 0	 0.0
0.977778 0	 0.0
0.977778 0.0222222	 0.0
0.955556 0.0222222	 0.0
0.977778 0	 0.0
1 0	 0.0
1 0.0222222	 0.0
0.977778 0.0222222	 0.0
1 0	 0.0
1.02222 0	 0.0
1.02222 0.0222222	 0.0
1 0.0222222	 0.0
1.02222 0	 0.0
1.04444 0	 0.0
1.04444 0.0222222	 0.0
1.02222 0.0222222	 0.0
1.04444 0	 0.0
1.06667 0	 0.0
1.06667 0.0222222	 0.0
1.04444 0.0222222	 0.0
1.06667 0	 0.0
1.08889 0	 0.0
1.08889 0.0222222	 0.0
1.06667 0.0222222	 0.0
1.08889 0	 0.0
1.11111 0	 0.0
1.11111 0.0222222	 0.0
1.08889 0.0222222	 0.0
1.11111 0	 0.0
1.13333 0	 0.0
1.13333 0.0222222	 0.0
1.11111 0.0222222	 0.0
1.13333 0	 0.0
1.15556 0	 0.0
1.15556 0.0222222	 0.0
1.13333 0.0222222	 0.0
1.15556 0	 0.0
1.17778 0	 0.0
1.17778 0.0222222	 0.0
1.15556 0.0222222	 0.0
1.17778 0	 0.0
1.2 0	 0.0
1.2 0.0222222	 0.0
1.17778 0.0222222	 0.0
1.2 0	 0.0
1.22222 0	 0.0
1.22222 0.0222222	 0.0
1.2 0.0222222	 0.0
1.22222 0	 0.0
1.24444 0	 0.0
1.24444 0.0222222	 0.0
1.22222 0.0222222	 0.0
1.24444 0	 0.0
1.26667 0	 0.0
1.26667 0.0222222	 0.0
1.24444 0.0222222	 0.0
1.26667 0	 0.0
1.28889 0	 0.0
1.28889 0.0222222	 0.0
1.26667 0.0222222	 0.0
1.28889 0	 0.0
1.31111 0	 0.0
1.31111 0.0222222	 0.0
1.28889 0.0222222	 0.0
1.31111 0	 0.0
1.33333 0	 0.0
1.33333 0.0222222	 0.0
1.31111 0.0222222	 0.0
1.33333 0	 0.0
1.35556 0	 0.0
1.35556 0.0222222	 0.0
1.33333 0.0222222	 0.0
1.35556 0	 0.0
1.37778 0	 0.0
1.37778 0.0222222	 0.0
1.35556 0.0222222	 0.0
1.37778 0	 0.0
1.4 0	 0.0
1.4 0.0222222	 0.0
1.37778 0.0222222	 0.0
1.4 0	 0.0
1.42222 0	 0.0
1.42222 0.0222222	 0.0
1.4 0.0222222	 0.0
1.42222 0	 0.0
1.44444 0	 0.0
1.44444 0.0222222	 0.0
1.42222 0.0222222	 0.0
1.44444 0	 0.0
1.46667 0	 0.0
1.46667 0.0222222	 0.0
1.44444 0.0222222	 0.0
1.46667 0	 0.0
1.48889 0	 0.0
1.48889 0.0222222	 0.0
1.46667 0.0222222	 0.0
1.48889 0	 0.0
1.51111 0	 0.0
1.51111 0.0222222	 0.0
1.48889 0.0222222	 0.0
1.51111 0	 0.0
1.53333 0	 0.0
1.53333 0.0222222	 0.0
1.51111 0.0222222	 0.0
1.53333 0	 0.0
1.55556 0	 0.0
1.55556 0.0222222	 0.0
1.53333 0.0222222	 0.0
1.55556 0	 0.0
1.57778 0	 0.0
1.57778 0.0222222	 0.0
1.55556 0.0222222	 0.0
1.57778 0	 0.0
1.6 0	 0.0
1.6 0.0222222	 0.0
1.57778 0.0222222	 0.0
1.6 0	 0.0
1.62222 0	 0.0
1.62222 0.0222222	 0.0
1.6 0.0222222	 0.0
1.62222 0	 0.0
1.64444 0	 0.0
1.64444 0.0222222	 0.0
1.62222 0.0222222	 0.0
1.64444 0	 0.0
1.66667 0	 0.0
1.66667 0.0222222	 0.0
1.64444 0.0222222	 0.0
1.66667 0	 0.0
1.68889 0	 0.0
1.68889 0.0222222	 0.0
1.66667 0.0222222	 0.0
1.68889 0	 0.0
1.71111 0	 0.0
1.71111 0.0222222	 0.0
1.68889 0.0222222	 0.0
1.71111 0	 0.0
1.73333 0	 0.0
1.73333 0.0222222	 0.0
1.71111 0.0222222	 0.0
1.73333 0	 0.0
1.75556 0	 0.0
1.75556 0.0222222	 0.0
1.73333 0.0222222	 0.0
1.75556 0	 0.0
1.77778 0	 0.0
1.77778 0.0222222	 0.0
1.75556 0.0222222	 0.0
1.77778 0	 0.0
1.8 0	 0.0
1.8 0.0222222	 0.0
1.77778 0.0222222	 0.0
1.8 0	 0.0
1.82222 0	 0.0
1.82222 0.0222222	 0.0
1.8 0.0222222	 0.0
1.82222 0	 0.0
1.84444 0	 0.0
1.84444 0.0222222	 0.0
1.82222 0.0222222	 0.0
1.84444 0	 0.0
1.86667 0	 0.0
1.86667 0.0222222	 0.0
1.84444 0.0222222	 0.0
1.86667 0	 0.0
1.88889 0	 0.0
1.88889 0.0222222	 0.0
1.86667 0.0222222	 0.0
1.88889 0	 0.0
1.91111 0	 0.0
1.91111 0.0222222	 0.0
1.88889 0.0222222	 0.0
1.91111 0	 0.0
1.93333 0	 0.0
1.93333 0.0222222	 0.0
1.91111 0.0222222	 0.0
1.93333 0	 0.0
1.95556 0	 0.0
1.95556 0.0222222	 0.0
1.93333 0.0222222	 0.0
1.95556 0	 0.0
1.97778 0	 0.0
1.97778 0.0222222	 0.0
1.95556 0.0222222	 0.0
1.97778 0	 0.0
2 0	 0.0
2 0.0222222	 0.0
1.97778 0.0222222	 0.0
2 0	 0.0
2.02222 0	 0.0
2.02222 0.0222222	 0.0
2 0.0222222	 0.0
2.02222 0	 0.0
2.04444 0	 0.0
2.04444 0.0222222	 0.0
2.02222 0.0222222	 0.0
2.04444 0	 0.0
2.06667 0	 0.0
2.06667 0.0222222	 0.0
2.04444 0.0222222	 0.0
2.06667 0	 0.0
2.08889 0	 0.0
2.08889 0.0222222	 0.0
2.06667 0.0222222	 0.0
2.08889 0	 0.0
2.11111 0	 0.0
2.11111 0.0222222	 0.0
2.08889 0.0222222	 0.0
2.11111 0	 0.0
2.13333 0	 0.0
2.13333 0.0222222	 0.0
2.11111 0.0222222	 0.0
2.13333 0	 0.0
2.15556 0	 0.0
2.15556 0.0222222	 0.0
2.13333 0.0222222	 0.0
2.15556 0	 0.0
2.17778 0	 0.0
2.17778 0.0222222	 0.0
2.15556 0.0222222	 0.0
2.17778 0	 0.0
2.2 0	 0.0
2.2 0.0222222	 0.0
2.17778 0.0222222	 0.0
2.2 0	 0.0
2.22222 0	 0.0
2.22222 0.0222222	 0.0
2.2 0.0222222	 0.0
2.22222 0	 0.0
2.24444 0	 0.0
2.24444 0.0222222	 0.0
2.22222 0.0222222	 0.0
2.24444 0	 0.0
2.26667 0	 0.0
2.26667 0.0222222	 0.0
2.24444 0.0222222	 0.0
2.26667 0	 0.0
2.28889 0	 0.0
2.28889 0.0222222	 0.0
2.26667 0.0222222	 0.0
2.28889 0	 0.0
2.31111 0	 0.0
2.31111 0.0222222	 0.0
2.28889 0.0222222	 0.0
2.31111 0	 0.0
2.33333 0	 0.0
2.33333 0.0222222	 0.0
2.31111 0.0222222	 0.0
2.33333 0	 0.0
2.35556 0	 0.0
2.35556 0.0222222	 0.0
2.33333 0.0222222	 0.0
2.35556 0	 0.0
2.37778 0	 0.0
2.37778 0.0222222	 0.0
2.35556 0.0222222	 0.0
2.37778 0	 0.0
2.4 0	 0.0
2.4 0.0222222	 0.0
2.37778 0.0222222	 0.0
2.4 0	 0.0
2.42222 0	 0.0
2.42222 0.0222222	 0.0
2.4 0.0222222	 0.0
2.42222 0	 0.0
2.44444 0	 0.0
2.44444 0.0222222	 0.0
2.42222 0.0222222	 0.0
2.44444 0	 0.0
2.46667 0	 0.0
2.46667 0.0222222	 0.0
2.44444 0.0222222	 0.0
2.46667 0	 0.0
2.48889 0	 0.0
2.48889 0.0222222	 0.0
2.46667 0.0222222	 0.0
2.48889 0	 0.0
2.51111 0	 0.0
2.51111 0.0222222	 0.0
2.48889 0.0222222	 0.0
2.51111 0	 0.0
2.53333 0	 0.0
2.53333 0.0222222	 0.0
2.51111 0.0222222	 0.0
2.53333 0	 0.0
2.55556 0	 0.0
2.55556 0.0222222	 0.0
2.53333 0.0222222	 0.0
2.55556 0	 0.0
2.57778 0	 0.0
2.57778 0.0222222	 0.0
2.55556 0.0222222	 0.0
2.57778 0	 0.0
2.6 0	 0.0
2.6 0.0222222	 0.0
2.57778 0.0222222	 0.0
2.6 0	 0.0
2.62222 0	 0.0
2.62222 0.0222222	 0.0
2.6 0.0222222	 0.0
2.62222 0	 0.0
2.64444 0	 0.0
2.64444 0.0222222	 0.0
2.62222 0.0222222	 0.0
2.64444 0	 0.0
2.66667 0	 0.0
2.66667 0.0222222	 0.0
2.64444 0.0222222	 0.0
2.66667 0	 0.0
2.68889 0	 0.0
2.68889 0.0222222	 0.0
2.66667 0.0222222	 0.0
2.68889 0	 0.0
2.71111 0	 0.0
2.71111 0.0222222	 0.0
2.68889 0.0222222	 0.0
2.71111 0	 0.0
2.73333 0	 0.0
2.73333 0.0222222	 0.0
2.71111 0.0222222	 0.0
2.73333 0	 0.0
2.75556 0	 0.0
2.75556 0.0222222	 0.0
2.73333 0.0222222	 0.0
2.75556 0	 0.0
2.77778 0	 0.0
2.77778 0.0222222	 0.0
2.75556 0.0222222	 0.0
2.77778 0	 0.0
2.8 0	 0.0
2.8 0.0222222	 0.0
2.77778 0.0222222	 0.0
2.8 0	 0.0
2.82222 0	 0.0
2.82222 0.0222222	 0.0
2.8 0.0222222	 0.0
2.82222 0	 0.0
2.84444 0	 0.0
2.84444 0.0222222	 0.0
2.82222 0.0222222	 0.0
2.84444 0	 0.0
2.86667 0	 0.0
2.86667 0.0222222	 0.0
2.84444 0.0222222	 0.0
2.86667 0	 0.0
2.88889 0	 0.0
2.88889 0.0222222	 0.0
2.86667 0.0222222	 0.0
2.88889 0	 0.0
2.91111 0	 0.0
2.91111 0.0222222	 0.0
2.88889 0.0222222	 0.0
2.91111 0	 0.0
[...]
POINT_DATA 23424
SCALARS levelset_first float
LOOKUP_TABLE default
-3.20096
-3.12601
-3.09984
-3.17478
-3.12601
-3.05206
-3.02588
-3.09984
-3.05206
-2.97909
-2.95292
-3.02588
-2.97909
-2.90711
-2.88094
-2.95292
-2.90711
-2.83612
-2.80994
-2.88094
-2.83612
-2.76611
-2.73994
-2.80994
-2.76611
-2.69709
-2.67092
-2.73994
-2.69709
-2.62906
-2.60289
-2.67092
-2.62906
-2.56202
-2.53585
-2.60289
-2.56202
-2.49597
-2.46979
-2.53585
-2.49597
-2.4309
-2.40473
-2.46979
-2.4309
-2.36682
-2.34065
-2.40473
-2.36682
-2.30373
-2.27756
-2.34065
-2.30373
-2.24163
-2.21545
-2.27756
-2.24163
-2.18051
-2.15434
-2.21545
-2.18051
-2.12038
-2.09421
-2.15434
-2.12038
-2.06124
-2.03507
-2.09421
-2.06124
-2.00309
-1.97691
-2.03507
-2.00309
-1.94592
-1.91975
-1.97691
-1.94592
-1.88974
-1.86357
-1.91975
-1.88974
-1.83455
-1.80838
-1.86357
-1.83455
-1.78035
-1.75418
-1.80838
-1.78035
-1.72713
-1.70096
-1.75418
-1.72713
-1.67491
-1.64873
-1.70096
-1.67491
-1.62367
-1.59749
-1.64873
-1.62367
-1.57342
-1.54724
-1.59749
-1.57342
-1.52415
-1.49798
-1.54724
-1.52415
-1.47587
-1.4497
-1.49798
-1.47587
-1.42859
-1.40241
-1.4497
-1.42859
-1.38228
-1.35611
-1.40241
-1.38228
-1.33697
-1.3108
-1.35611
-1.33697
-1.29264
-1.26647
-1.3108
-1.29264
-1.24931
-1.22313
-1.26647
-1.24931
-1.20695
-1.18078
-1.22313
-1.20695
-1.16559
-1.13942
-1.18078
-1.16559
-1.12522
-1.09904
-1.13942
-1.12522
-1.08583
-1.05965
-1.09904
-1.08583
-1.04743
-1.02125
-1.05965
-1.04743
-1.01002
-0.983842
-1.02125
-1.01002
-0.97359
-0.947417
-0.983842
-0.97359
-0.938153
-0.91198
-0.947417
-0.938153
-0.903703
-0.87753
-0.91198
-0.903703
-0.870241
-0.844069
-0.87753
-0.870241
-0.837767
-0.811594
-0.844069
-0.837767
-0.80628
-0.780108
-0.811594
-0.80628
-0.775781
-0.749609
-0.780108
-0.775781
-0.74627
-0.720097
-0.749609
-0.74627
-0.717746
-0.691574
-0.720097
-0.717746
-0.69021
-0.664038
-0.691574
-0.69021
-0.663662
-0.637489
-0.664038
-0.663662
-0.638101
-0.611929
-0.637489
-0.638101
-0.613528
-0.587356
-0.611929
-0.613528
-0.589943
-0.56377
-0.587356
-0.589943
-0.567345
-0.541172
-0.56377
-0.567345
-0.545735
-0.519562
-0.541172
-0.545735
-0.525113
-0.49894
-0.519562
-0.525113
-0.505478
-0.479305
-0.49894
-0.505478
-0.486831
-0.460658
-0.479305
-0.486831
-0.469171
-0.442998
-0.460658
-0.469171
-0.452499
-0.426327
-0.442998
-0.452499
-0.436815
-0.410642
-0.426327
-0.436815
-0.422119
-0.395946
-0.410642
-0.422119
-0.40841
-0.382237
-0.395946
-0.40841
-0.395689
-0.369516
-0.382237
-0.395689
-0.383955
-0.357782
-0.369516
-0.383955
-0.373209
-0.347036
-0.357782
-0.373209
-0.363451
-0.337278
-0.347036
-0.363451
-0.35468
-0.328508
-0.337278
-0.35468
-0.346898
-0.320725
-0.328508
-0.346898
-0.340102
-0.313929
-0.320725
-0.340102
-0.334295
-0.308122
-0.313929
-0.334295
-0.329475
-0.303302
-0.308122
-0.329475
-0.325642
-0.29947
-0.303302
-0.325642
-0.322798
-0.296625
-0.29947
-0.322798
-0.320941
-0.294768
-0.296625
-0.320941
-0.320071
-0.293899
-0.294768
-0.320071
-0.32019
-0.294017
-0.293899
-0.32019
-0.321296
-0.295123
-0.294017
-0.321296
-0.323389
-0.297216
-0.295123
-0.323389
-0.326471
-0.300298
-0.297216
-0.326471
-0.330539
-0.304367
-0.300298
-0.330539
-0.335596
-0.309423
-0.304367
-0.335596
-0.34164
-0.315467
-0.309423
-0.34164
-0.348672
-0.322499
-0.315467
-0.348672
-0.356692
-0.330519
-0.322499
-0.356692
-0.365699
-0.339526
-0.330519
-0.365699
-0.375694
-0.349521
-0.339526
-0.375694
-0.386676
-0.360503
-0.349521
-0.386676
-0.398646
-0.372474
-0.360503
-0.398646
-0.411604
-0.385431
-0.372474
-0.411604
-0.42555
-0.399377
-0.385431
-0.42555
-0.440483
-0.41431
-0.399377
-0.440483
-0.456404
-0.430231
-0.41431
-0.456404
-0.473312
-0.447139
-0.430231
-0.473312
-0.491208
-0.465035
-0.447139
-0.491208
-0.510092
-0.483919
-0.465035
-0.510092
-0.529963
-0.50379
-0.483919
-0.529963
-0.550822
-0.524649
-0.50379
-0.550822
-0.572669
-0.546496
-0.524649
-0.572669
-0.595503
-0.56933
-0.546496
-0.595503
-0.619325
-0.593152
-0.56933
-0.619325
-0.644135
-0.617962
-0.593152
-0.644135
-0.669932
-0.643759
-0.617962
-0.669932
-0.696717
-0.670544
-0.643759
-0.696717
-0.72449
-0.698317
-0.670544
-0.72449
-0.75325
-0.727077
-0.698317
-0.75325
-0.782998
-0.756825
-0.727077
-0.782998
-0.813734
-0.787561
-0.756825
-0.813734
-0.845457
-0.819284
-0.787561
-0.845457
-0.878168
-0.851995
-0.819284
-0.878168
-0.911866
-0.885694
-0.851995
-0.911866
-0.946553
-0.92038
-0.885694
-0.946553
-0.982226
-0.956054
-0.92038
-0.982226
-1.01889
-0.992715
-0.956054
-1.01889
-1.05654
-1.03036
-0.992715
-1.05654
-1.09517
-1.069
-1.03036
-1.09517
-1.1348
-1.10863
-1.069
-1.1348
-1.17541
-1.14924
-1.10863
-1.17541
-1.21701
-1.19084
-1.14924
-1.21701
-1.2596
-1.23342
-1.19084
-1.2596
-1.30317
-1.277
-1.23342
-1.30317
-1.34774
-1.32156
-1.277
-1.34774
-1.39329
-1.36711
-1.32156
-1.39329
-1.43982
-1.41365
-1.36711
-1.43982
-1.48735
-1.46118
-1.41365
-1.48735
-1.53586
-1.50969
-1.46118
-1.53586
-1.58536
-1.55919
-1.50969
-1.58536
-1.63585
-1.60968
-1.55919
-1.63585
-1.68733
-1.66116
-1.60968
-1.68733
-1.73979
-1.71362
-1.66116
-1.73979
-1.79324
-1.76707
-1.71362
-1.79324
-1.84768
-1.82151
-1.76707
-1.84768
-1.90311
-1.87694
-1.82151
-1.90311
-1.95953
-1.93335
-1.87694
-1.95953
-2.01693
-1.99076
-1.93335
-3.17478
-3.09984
-3.07466
-3.1496
-3.09984
-3.02588
-3.0007
-3.07466
-3.02588
-2.95292
-2.92773
-3.0007
-2.95292
-2.88094
-2.85575
-2.92773
-2.88094
-2.80994
-2.78476
-2.85575
-2.80994
-2.73994
-2.71475
-2.78476
-2.73994
-2.67092
-2.64574
-2.71475
-2.67092
-2.60289
-2.57771
-2.64574
-2.60289
-2.53585
-2.51066
-2.57771
-2.53585
-2.46979
-2.44461
-2.51066
-2.46979
-2.40473
-2.37954
-2.44461
-2.40473
-2.34065
-2.31546
-2.37954
-2.34065
-2.27756
-2.25237
-2.31546
-2.27756
-2.21545
-2.19027
-2.25237
-2.21545
-2.15434
-2.12915
-2.19027
-2.15434
-2.09421
-2.06902
-2.12915
-2.09421
-2.03507
-2.00988
-2.06902
-2.03507
-1.97691
-1.95173
-2.00988
-1.97691
-1.91975
-1.89456
-1.95173
-1.91975
-1.86357
-1.83838
-1.89456
-1.86357
-1.80838
-1.78319
-1.83838
-1.80838
-1.75418
-1.72899
-1.78319
-1.75418
-1.70096
-1.67578
-1.72899
-1.70096
-1.64873
-1.62355
-1.67578
-1.64873
-1.59749
-1.57231
-1.62355
-1.59749
-1.54724
-1.52206
-1.57231
-1.54724
-1.49798
-1.47279
-1.52206
-1.49798
-1.4497
-1.42452
-1.47279
-1.4497
-1.40241
-1.37723
-1.42452
-1.40241
-1.35611
-1.33093
-1.37723
-1.35611
-1.3108
-1.28561
-1.33093
-1.3108
-1.26647
-1.24129
-1.28561
-1.26647
-1.22313
-1.19795
-1.24129
-1.22313
-1.18078
-1.1556
-1.19795
-1.18078
-1.13942
-1.11423
-1.1556
-1.13942
-1.09904
-1.07386
-1.11423
-1.09904
-1.05965
-1.03447
-1.07386
-1.05965
-1.02125
-0.99607
-1.03447
-1.02125
-0.983842
-0.958657
-0.99607
-0.983842
-0.947417
-0.922232
-0.958657
-0.947417
-0.91198
-0.886795
-0.922232
-0.91198
-0.87753
-0.852345
-0.886795
-0.87753
-0.844069
-0.818883
-0.852345
-0.844069
-0.811594
-0.786409
-0.818883
-0.811594
-0.780108
-0.754922
-0.786409
-0.780108
-0.749609
-0.724423
-0.754922
-0.749609
-0.720097
-0.694912
-0.724423
-0.720097
-0.691574
-0.666388
-0.694912
-0.691574
-0.664038
-0.638852
-0.666388
-0.664038
-0.637489
-0.612304
-0.638852
-0.637489
-0.611929
-0.586743
-0.612304
-0.611929
-0.587356
-0.56217
-0.586743
-0.587356
-0.56377
-0.538585
-0.56217
-0.56377
-0.541172
-0.515987
-0.538585
-0.541172
-0.519562
-0.494377
-0.515987
-0.519562
-0.49894
-0.473755
-0.494377
-0.49894
-0.479305
-0.45412
-0.473755
-0.479305
-0.460658
-0.435473
-0.45412
-0.460658
-0.442998
-0.417813
-0.435473
-0.442998
-0.426327
-0.401141
-0.417813
-0.426327
-0.410642
-0.385457
-0.401141
-0.410642
-0.395946
-0.370761
-0.385457
-0.395946
-0.382237
-0.357052
-0.370761
-0.382237
-0.369516
-0.344331
-0.357052
-0.369516
-0.357782
-0.332597
-0.344331
-0.357782
-0.347036
-0.321851
-0.332597
-0.347036
-0.337278
-0.312093
-0.321851
-0.337278
-0.328508
-0.303322
-0.312093
-0.328508
-0.320725
-0.29554
-0.303322
-0.320725
-0.313929
-0.288744
-0.29554
-0.313929
-0.308122
-0.282937
-0.288744
-0.308122
-0.303302
-0.278117
-0.282937
-0.303302
-0.29947
-0.274284
-0.278117
-0.29947
-0.296625
-0.27144
-0.274284
-0.296625
-0.294768
-0.269583
-0.27144
-0.294768
-0.293899
-0.268713
-0.269583
-0.293899
-0.294017
-0.268832
-0.268713
-0.294017
-0.295123
-0.269938
-0.268832
-0.295123
-0.297216
-0.272031
-0.269938
-0.297216
-0.300298
-0.275113
-0.272031
-0.300298
-0.304367
-0.279181
-0.275113
-0.304367
-0.309423
-0.284238
-0.279181
-0.309423
-0.315467
-0.290282
-0.284238
-0.315467
-0.322499
-0.297314
-0.290282
-0.322499
-0.330519
-0.305334
-0.297314
-0.330519
-0.339526
-0.314341
-0.305334
-0.339526
-0.349521
-0.324336
-0.314341
-0.349521
-0.360503
-0.335318
-0.324336
-0.360503
-0.372474
-0.347288
-0.335318
-0.372474
-0.385431
-0.360246
-0.347288
-0.385431
-0.399377
-0.374192
-0.360246
-0.399377
-0.41431
-0.389125
-0.374192
-0.41431
-0.430231
-0.405046
-0.389125
-0.430231
-0.447139
-0.421954
-0.405046
-0.447139
-0.465035
-0.43985
-0.421954
-0.465035
-0.483919
-0.458734
-0.43985
-0.483919
-0.50379
-0.478605
-0.458734
-0.50379
-0.524649
-0.499464
-0.478605
-0.524649
-0.546496
-0.521311
-0.499464
-0.546496
-0.56933
-0.544145
-0.521311
-0.56933
-0.593152
-0.567967
-0.544145
-0.593152
-0.617962
-0.592777
-0.567967
-0.617962
-0.643759
-0.618574
-0.592777
-0.643759
-0.670544
-0.645359
-0.618574
-0.670544
-0.698317
-0.673132
-0.645359
-0.698317
-0.727077
-0.701892
-0.673132
-0.727077
-0.756825
-0.73164
-0.701892
-0.756825
-0.787561
-0.762376
-0.73164
-0.787561
-0.819284
-0.794099
-0.762376
-0.819284
-0.851995
-0.82681
-0.794099
-0.851995
-0.885694
-0.860508
-0.82681
-0.885694
-0.92038
-0.895195
-0.860508
-0.92038
-0.956054
-0.930868
-0.895195
-0.956054
-0.992715
-0.96753
-0.930868
-0.992715
-1.03036
-1.00518
-0.96753
-1.03036
-1.069
-1.04382
-1.00518
-1.069
-1.10863
-1.08344
-1.04382
-1.10863
-1.14924
-1.12405
-1.08344
-1.14924
-1.19084
-1.16565
-1.12405
-1.19084
-1.23342
-1.20824
-1.16565
-1.23342
-1.277
-1.25181
-1.20824
-1.277
-1.32156
-1.29638
-1.25181
-1.32156
-1.36711
-1.34193
-1.29638
-1.36711
-1.41365
-1.38847
-1.34193
-1.41365
-1.46118
-1.43599
-1.38847
-1.46118
-1.50969
-1.48451
-1.43599
-1.50969
-1.55919
-1.53401
-1.48451
-1.55919
-1.60968
-1.58449
-1.53401
-1.60968
-1.66116
-1.63597
-1.58449
-1.66116
-1.71362
-1.68844
-1.63597
-1.71362
-1.76707
-1.74189
-1.68844
-1.76707
-1.82151
-1.79633
-1.74189
-1.82151
-1.87694
-1.85175
-1.79633
-1.87694
-1.93335
-1.90817
-1.85175
-1.93335
-1.99076
-1.96557
-1.90817
-3.1496
-3.07466
-3.05046
-3.1254
-3.07466
-3.0007
-2.9765
-3.05046
-3.0007
-2.92773
-2.90353
-2.9765
-2.92773
-2.85575
-2.83155
-2.90353
-2.85575
-2.78476
-2.76056
-2.83155
-2.78476
-2.71475
-2.69056
-2.76056
-2.71475
-2.64574
-2.62154
-2.69056
-2.64574
-2.57771
-2.55351
-2.62154
-2.57771
-2.51066
-2.48647
-2.55351
-2.51066
-2.44461
-2.42041
-2.48647
-2.44461
-2.37954
-2.35534
-2.42041
-2.37954
-2.31546
-2.29127
-2.35534
-2.31546
-2.25237
-2.22817
-2.29127
-2.25237
-2.19027
-2.16607
-2.22817
-2.19027
-2.12915
-2.10495
-2.16607
-2.12915
-2.06902
-2.04482
-2.10495
-2.06902
-2.00988
-1.98568
-2.04482
-2.00988
-1.95173
-1.92753
-1.98568
-1.95173
-1.89456
-1.87036
-1.92753
-1.89456
-1.83838
-1.81419
-1.87036
-1.83838
-1.78319
-1.759
-1.81419
-1.78319
-1.72899
-1.70479
-1.759
-1.72899
-1.67578
-1.65158
-1.70479
-1.67578
-1.62355
-1.59935
-1.65158
-1.62355
-1.57231
-1.54811
-1.59935
-1.57231
-1.52206
-1.49786
-1.54811
-1.52206
-1.47279
-1.4486
-1.49786
-1.47279
-1.42452
-1.40032
-1.4486
-1.42452
-1.37723
-1.35303
-1.40032
-1.37723
-1.33093
-1.30673
-1.35303
-1.33093
-1.28561
-1.26141
-1.30673
-1.28561
-1.24129
-1.21709
-1.26141
-1.24129
-1.19795
-1.17375
-1.21709
-1.19795
-1.1556
-1.1314
-1.17375
-1.1556
-1.11423
-1.09004
-1.1314
-1.11423
-1.07386
-1.04966
-1.09004
-1.07386
-1.03447
-1.01027
-1.04966
-1.03447
-0.99607
-0.971872
-1.01027
-0.99607
-0.958657
-0.93446
-0.971872
-0.958657
-0.922232
-0.898035
-0.93446
-0.922232
-0.886795
-0.862597
-0.898035
-0.886795
-0.852345
-0.828148
-0.862597
-0.852345
-0.818883
-0.794686
-0.828148
-0.818883
-0.786409
-0.762212
-0.794686
-0.786409
-0.754922
-0.730725
-0.762212
-0.754922
-0.724423
-0.700226
-0.730725
-0.724423
-0.694912
-0.670715
-0.700226
-0.694912
-0.666388
-0.642191
-0.670715
-0.666388
-0.638852
-0.614655
-0.642191
-0.638852
-0.612304
-0.588107
-0.614655
-0.612304
-0.586743
-0.562546
-0.588107
-0.586743
-0.56217
-0.537973
-0.562546
-0.56217
-0.538585
-0.514387
-0.537973
-0.538585
-0.515987
-0.49179
-0.514387
-0.515987
-0.494377
-0.47018
-0.49179
-0.494377
-0.473755
-0.449557
-0.47018
-0.473755
-0.45412
-0.429922
-0.449557
-0.45412
-0.435473
-0.411275
-0.429922
-0.435473
-0.417813
-0.393616
-0.411275
-0.417813
-0.401141
-0.376944
-0.393616
-0.401141
-0.385457
-0.36126
-0.376944
-0.385457
-0.370761
-0.346563
-0.36126
-0.370761
-0.357052
-0.332854
-0.346563
-0.357052
-0.344331
-0.320133
-0.332854
-0.344331
-0.332597
-0.3084
-0.320133
-0.332597
-0.321851
-0.297654
-0.3084
-0.321851
-0.312093
-0.287896
-0.297654
-0.312093
-0.303322
-0.279125
-0.287896
-0.303322
-0.29554
-0.271342
-0.279125
-0.29554
-0.288744
-0.264547
-0.271342
-0.288744
-0.282937
-0.258739
-0.264547
-0.282937
-0.278117
-0.253919
-0.258739
-0.278117
-0.274284
-0.250087
-0.253919
-0.274284
-0.27144
-0.247242
-0.250087
-0.27144
-0.269583
-0.245385
-0.247242
-0.269583
-0.268713
-0.244516
-0.245385
-0.268713
-0.268832
-0.244634
-0.244516
-0.268832
-0.269938
-0.24574
-0.244634
-0.269938
-0.272031
-0.247834
-0.24574
-0.272031
-0.275113
-0.250915
-0.247834
-0.275113
-0.279181
-0.254984
-0.250915
-0.279181
-0.284238
-0.26004
-0.254984
-0.284238
-0.290282
-0.266085
-0.26004
-0.290282
-0.297314
-0.273117
-0.266085
-0.297314
-0.305334
-0.281136
-0.273117
-0.305334
-0.314341
-0.290143
-0.281136
-0.314341
-0.324336
-0.300138
-0.290143
-0.324336
-0.335318
-0.311121
-0.300138
-0.335318
-0.347288
-0.323091
-0.311121
-0.347288
-0.360246
-0.336049
-0.323091
-0.360246
-0.374192
-0.349994
-0.336049
-0.374192
-0.389125
-0.364927
-0.349994
-0.389125
-0.405046
-0.380848
-0.364927
-0.405046
-0.421954
-0.397756
-0.380848
-0.421954
-0.43985
-0.415653
-0.397756
-0.43985
-0.458734
-0.434536
-0.415653
-0.458734
-0.478605
-0.454408
-0.434536
-0.478605
-0.499464
-0.475267
-0.454408
-0.499464
-0.521311
-0.497113
-0.475267
-0.521311
-0.544145
-0.519948
-0.497113
-0.544145
-0.567967
-0.54377
-0.519948
-0.567967
-0.592777
-0.568579
-0.54377
-0.592777
-0.618574
-0.594377
-0.568579
-0.618574
-0.645359
-0.621162
-0.594377
-0.645359
-0.673132
-0.648934
-0.621162
-0.673132
-0.701892
-0.677695
-0.648934
-0.701892
-0.73164
-0.707443
-0.677695
-0.73164
-0.762376
-0.738178
-0.707443
-0.762376
-0.794099
-0.769901
-0.738178
-0.794099
-0.82681
-0.802612
-0.769901
-0.82681
-0.860508
-0.836311
-0.802612
-0.860508
-0.895195
-0.870997
-0.836311
-0.895195
-0.930868
-0.906671
-0.870997
-0.930868
-0.96753
-0.943332
-0.906671
-0.96753
-1.00518
-0.980982
-0.943332
-1.00518
-1.04382
-1.01962
-0.980982
-1.04382
-1.08344
-1.05924
-1.01962
-1.08344
-1.12405
-1.09986
-1.05924
-1.12405
-1.16565
-1.14145
-1.09986
-1.16565
-1.20824
-1.18404
-1.14145
-1.20824
-1.25181
-1.22762
-1.18404
-1.25181
-1.29638
-1.27218
-1.22762
-1.29638
-1.34193
-1.31773
-1.27218
-1.34193
-1.38847
-1.36427
-1.31773
-1.38847
-1.43599
-1.41179
-1.36427
-1.43599
-1.48451
-1.46031
-1.41179
-1.48451
-1.53401
-1.50981
-1.46031
-1.53401
-1.58449
-1.5603
-1.50981
-1.58449
-1.63597
-1.61177
-1.5603
-1.63597
-1.68844
-1.66424
-1.61177
-1.68844
-1.74189
-1.71769
-1.66424
-1.74189
-1.79633
-1.77213
-1.71769
-1.79633
-1.85175
-1.82756
-1.77213
-1.85175
-1.90817
-1.88397
-1.82756
-1.90817
-1.96557
-1.94137
-1.88397
-3.1254
-3.05046
-3.02725
-3.10219
-3.05046
-2.9765
-2.95329
-3.02725
-2.9765
-2.90353
-2.88032
-2.95329
-2.90353
-2.83155
-2.80834
-2.88032
-2.83155
-2.76056
-2.73735
-2.80834
-2.76056
-2.69056
-2.66735
-2.73735
-2.69056
-2.62154
-2.59833
-2.66735
-2.62154
-2.55351
-2.5303
-2.59833
-2.55351
-2.48647
-2.46326
-2.5303
-2.48647
-2.42041
-2.3972
-2.46326
-2.42041
-2.35534
-2.33213
-2.3972
-2.35534
-2.29127
-2.26806
-2.33213
-2.29127
-2.22817
-2.20496
-2.26806
-2.22817
-2.16607
-2.14286
-2.20496
-2.16607
-2.10495
-2.08174
-2.14286
-2.10495
-2.04482
-2.02162
-2.08174
-2.04482
-1.98568
-1.96247
-2.02162
-1.98568
-1.92753
-1.90432
-1.96247
-1.92753
-1.87036
-1.84716
-1.90432
-1.87036
-1.81419
-1.79098
-1.84716
-1.81419
-1.759
-1.73579
-1.79098
-1.759
-1.70479
-1.68158
-1.73579
-1.70479
-1.65158
-1.62837
-1.68158
-1.65158
-1.59935
-1.57614
-1.62837
-1.59935
-1.54811
-1.5249
-1.57614
-1.54811
-1.49786
-1.47465
-1.5249
-1.49786
-1.4486
-1.42539
-1.47465
-1.4486
-1.40032
-1.37711
-1.42539
-1.40032
-1.35303
-1.32982
-1.37711
-1.35303
-1.30673
-1.28352
-1.32982
-1.30673
-1.26141
-1.2382
-1.28352
-1.26141
-1.21709
-1.19388
-1.2382
-1.21709
-1.17375
-1.15054
-1.19388
-1.17375
-1.1314
-1.10819
-1.15054
-1.1314
-1.09004
-1.06683
-1.10819
-1.09004
-1.04966
-1.02645
-1.06683
-1.04966
-1.01027
-0.987062
-1.02645
-1.01027
-0.971872
-0.948662
-0.987062
-0.971872
-0.93446
-0.91125
-0.948662
-0.93446
-0.898035
-0.874825
-0.91125
-0.898035
-0.862597
-0.839387
-0.874825
-0.862597
-0.828148
-0.804938
-0.839387
-0.828148
-0.794686
-0.771476
-0.804938
-0.794686
-0.762212
-0.739002
-0.771476
-0.762212
-0.730725
-0.707515
-0.739002
-0.730725
-0.700226
-0.677016
-0.707515
-0.700226
-0.670715
-0.647505
-0.677016
-0.670715
-0.642191
-0.618981
-0.647505
-0.642191
-0.614655
-0.591445
-0.618981
-0.614655
-0.588107
-0.564897
-0.591445
-0.588107
-0.562546
-0.539336
-0.564897
-0.562546
-0.537973
-0.514763
-0.539336
-0.537973
-0.514387
-0.491178
-0.514763
-0.514387
-0.49179
-0.46858
-0.491178
-0.49179
-0.47018
-0.44697
-0.46858
-0.47018
-0.449557
-0.426347
-0.44697
-0.449557
-0.429922
-0.406712
-0.426347
-0.429922
-0.411275
-0.388065
-0.406712
-0.411275
-0.393616
-0.370406
-0.388065
-0.393616
-0.376944
-0.353734
-0.370406
-0.376944
-0.36126
-0.33805
-0.353734
-0.36126
-0.346563
-0.323353
-0.33805
-0.346563
-0.332854
-0.309645
-0.323353
-0.332854
-0.320133
-0.296923
-0.309645
-0.320133
-0.3084
-0.28519
-0.296923
-0.3084
-0.297654
-0.274444
-0.28519
-0.297654
-0.287896
-0.264686
-0.274444
-0.287896
-0.279125
-0.255915
-0.264686
-0.279125
-0.271342
-0.248132
-0.255915
-0.271342
-0.264547
-0.241337
-0.248132
-0.264547
-0.258739
-0.235529
-0.241337
-0.258739
-0.253919
-0.230709
-0.235529
-0.253919
-0.250087
-0.226877
-0.230709
-0.250087
-0.247242
-0.224032
-0.226877
-0.247242
-0.245385
-0.222175
-0.224032
-0.245385
-0.244516
-0.221306
-0.222175
-0.244516
-0.244634
-0.221424
-0.221306
-0.244634
-0.24574
-0.22253
-0.221424
-0.24574
-0.247834
-0.224624
-0.22253
-0.247834
-0.250915
-0.227705
-0.224624
-0.250915
-0.254984
-0.231774
-0.227705
-0.254984
-0.26004
-0.236831
-0.231774
-0.26004
-0.266085
-0.242875
-0.236831
-0.266085
-0.273117
-0.249907
-0.242875
-0.273117
-0.281136
-0.257926
-0.249907
-0.281136
-0.290143
-0.266933
-0.257926
-0.290143
-0.300138
-0.276928
-0.266933
-0.300138
-0.311121
-0.287911
-0.276928
-0.311121
-0.323091
-0.299881
-0.287911
-0.323091
-0.336049
-0.312839
-0.299881
-0.336049
-0.349994
-0.326784
-0.312839
-0.349994
-0.364927
-0.341717
-0.326784
-0.364927
-0.380848
-0.357638
-0.341717
-0.380848
-0.397756
-0.374547
-0.357638
-0.397756
-0.415653
-0.392443
-0.374547
-0.415653
-0.434536
-0.411326
-0.392443
-0.434536
-0.454408
-0.431198
-0.411326
-0.454408
-0.475267
-0.452057
-0.431198
-0.475267
-0.497113
-0.473904
-0.452057
-0.497113
-0.519948
-0.496738
-0.473904
-0.519948
-0.54377
-0.52056
-0.496738
-0.54377
-0.568579
-0.54537
-0.52056
-0.568579
-0.594377
-0.571167
-0.54537
-0.594377
-0.621162
-0.597952
-0.571167
-0.621162
-0.648934
-0.625724
-0.597952
-0.648934
-0.677695
-0.654485
-0.625724
-0.677695
-0.707443
-0.684233
-0.654485
-0.707443
-0.738178
-0.714968
-0.684233
-0.738178
-0.769901
-0.746692
-0.714968
-0.769901
-0.802612
-0.779402
-0.746692
-0.802612
-0.836311
-0.813101
-0.779402
-0.836311
-0.870997
-0.847787
-0.813101
-0.870997
-0.906671
-0.883461
-0.847787
-0.906671
-0.943332
-0.920123
-0.883461
-0.943332
-0.980982
-0.957772
-0.920123
-0.980982
-1.01962
-0.996409
-0.957772
-1.01962
-1.05924
-1.03603
-0.996409
-1.05924
-1.09986
-1.07665
-1.03603
-1.09986
-1.14145
-1.11824
-1.07665
-1.14145
-1.18404
-1.16083
-1.11824
-1.18404
-1.22762