# vtk DataFile Version 1.0
unstructured Grid
ASCII
DATASET UNSTRUCTURED_GRID
POINTS 23448 float 
0 0	 0.0
0.0222222 0	 0.0
0.0222222 0.0222222	 0.0
0 0.0222222	 0.0
0.0222222 0	 0.0
0.0444444 0	 0.0
0.0444444 0.0222222	 0.0
0.0222222 0.0222222	 0.0
0.0444444 0	 0.0
0.0666667 0	 0.0
0.0666667 0.0222222	 0.0
0.0444444 0.0222222	 0.0
0.0666667 0	 0.0
0.0888889 0	 0.0
0.0888889 0.0222222	 0.0
0.0666667 0.0222222	 0.0
0.0888889 0	 0.0
0.111111 0	 0.0
0.111111 0.0222222	 0.0
0.0888889 0.0222222	 0.0
0.111111 0	 0.0
0.133333 0	 0.0
0.133333 0.0222222	 0.0
0.111111 0.0222222	 0.0
0.133333 0	 0.0
0.155556 0	 0.0
0.155556 0.0222222	 0.0
0.133333 0.0222222	 0.0
0.155556 0	 0.0
0.177778 0	 0.0
0.177778 0.0222222	 0.0
0.155556 0.0222222	 0.0
0.177778 0	 0.0
0.2 0	 0.0
0.2 0.0222222	 0.0
0.177778 0.0222222	 0.0
0.2 0	 0.0
0.222222 0	 0.0
0.222222 0.0222222	 0.0
0.2 0.0222222	 0.0
0.222222 0	 0.0
0.244444 0	 0.0
0.244444 0.0222222	 0.0
0.222222 0.0222222	 0.0
0.244444 0	 0.0
0.266667 0	 0.0
0.266667 0.0222222	 0.0
0.244444 0.0222222	 0.0
0.266667 0	 0.0
0.288889 0	 0.0
0.288889 0.0222222	 0.0
0.266667 0.0222222	 0.0
0.288889 0	 0.0
0.311111 0	 0.0
0.311111 0.0222222	 0.0
0.288889 0.0222222	 0.0
0.311111 0	 0.0
0.333333 0	 0.0
0.333333 0.0222222	 0.0
0.311111 0.0222222	 0.0
0.333333 0	 0.0
0.355556 0	 0.0
0.355556 0.0222222	 0.0
0.333333 0.0222222	 0.0
0.355556 0	 0.0
0.377778 0	 0.0
0.377778 0.0222222	 0.0
0.355556 0.0222222	 0.0
0.377778 0	 0.0
0.4 0	 0.0
0.4 0.0222222	 0.0
0.377778 0.0222222	 0.0
0.4 0	 0.0
0.422222 0	 0.0
0.422222 0.0222222	 0.0
0.4 0.0222222	 0.0
0.422222 0	 0.0
0.444444 0	 0.0
0.444444 0.0222222	 0.0
0.422222 0.0222222	 0.0
0.444444 0	 0.0
0.466667 0	 0.0
0.466667 0.0222222	 0.0
0.444444 0.0222222	 0.0
0.466667 0	 0.0
0.488889 0	 0.0
0.488889 0.0222222	 0.0
0.466667 0.0222222	 0.0
0.488889 0	 0.0
0.511111 0	 0.0
0.511111 0.0222222	 0.0
0.488889 0.0222222	 0.0
0.511111 0	 0.0
0.533333 0	 0.0
0.533333 0.0222222	 0.0
0.511111 0.0222222	 0.0
0.533333 0	 0.0
0.555556 0	 0.0
0.555556 0.0222222	 0.0
0.533333 0.0222222	 0.0
0.555556 0	 0.0
0.577778 0	 0.0
0.577778 0.0222222	 0.0
0.555556 0.0222222	 0.0
0.577778 0	 0.0
0.6 0	 0.0
0.6 0.0222222	 0.0
0.577778 0.0222222	 0.0
0.6 0	 0.0
0.622222 0	 0.0
0.622222 0.0222222	 0.0
0.6 0.0222222	 0.0
0.622222 0	 0.0
0.644444 0	 0.0
0.644444 0.0222222	 0.0
0.622222 0.0222222	 0.0
0.644444 0	 0.0
0.666667 0	 0.0
0.666667 0.0222222	 0.0
0.644444 0.0222222	 0.0
0.666667 0	 0.0
0.688889 0	 0.0
0.688889 0.0222222	 0.0
0.666667 0.0222222	 0.0
0.688889 0	 0.0
0.711111 0	 0.0
0.711111 0.0222222	 0.0
0.688889 0.0222222	 0.0
0.711111 0	 0.0
0.733333 0	 0.0
0.733333 0.0222222	 0.0
0.711111 0.0222222	 0.0
0.733333 0	 0.0
0.755556 0	 0.0
0.755556 0.0222222	 0.0
0.733333 0.0222222	 0.0
0.755556 0	 0.0
0.777778 0	 0.0
0.777778 0.0222222	 0.0
0.755556 0.0222222	 0.0
0.777778 0	 0.0
0.8 0	 0.0
0.8 0.0222222	 0.0
0.777778 0.0222222	 0.0
0.8 0	 0.0
0.822222 0	 0.0
0.822222 0.0222222	 0.0
0.8 0.0222222	 0.0
0.822222 0	 0.0
0.844444 0	 0.0
0.844444 0.0222222	 0.0
0.822222 0.0222222	 0.0
0.844444 0	 0.0
0.866667 0	 0.0
0.866667 0.0222222	 0.0
0.844444 0.0222222	 0.0
0.866667 0	 0.0
0.888889 0	 0.0
0.888889 0.0222222	 0.0
0.866667 0.0222222	 0.0
0.888889 0	 0.0
0.911111 0	 0.0
0.911111 0.0222222	 0.0
0.888889 0.0222222	 0.0
0.911111 0	 0.0
0.933333 0	 0.0
0.933333 0.0222222	 0.0
0.911111 0.0222222	 0.0
0.933333 0	 0.0
0.955556 0	 0.0
0.955556 0.0222222	 0.0
0.933333 0.0222222	 0.0
0.955556 0	 0.0
0.977778 0	 0.0
0.977778 0.0222222	 0.0
0.955556 0.0222222	 0.0
0.977778 0	 0.0
1 0	 0.0
1 0.0222222	 0.0
0.977778 0.0222222	 0.0
1 0	 0.0
1.02222 0	 0.0
1.02222 0.0222222	 0.0
1 0.0222222	 0.0
1.02222 0	 0.0
1.04444 0	 0.0
1.04444 0.0222222	 0.0
1.02222 0.0222222	 0.0
1.04444 0	 0.0
1.06667 0	 0.0
1.06667 0.0222222	 0.0
1.04444 0.0222222	 0.0
1.06667 0	 0.0
1.08889 0	 0.0
1.08889 0.0222222	 0.0
1.06667 0.0222222	 0.0
1.08889 0	 0.0
1.11111 0	 0.0
1.11111 0.0222222	 0.0
1.08889 0.0222222	 0.0
1.11111 0	 0.0
1.13333 0	 0.0
1.13333 0.0222222	 0.0
1.11111 0.0222222	 0.0
1.13333 0	 0.0
1.15556 0	 0.0
1.15556 0.0222222	 0.0
1.13333 0.0222222	 0.0
1.15556 0	 0.0
1.17778 0	 0.0
1.17778 0.0222222	 0.0
1.15556 0.0222222	 0.0
1.17778 0	 0.0
1.2 0	 0.0
1.2 0.0222222	 0.0
1.17778 0.0222222	 0.0
1.2 0	 0.0
1.22222 0	 0.0
1.22222 0.0222222	 0.0
1.2 0.0222222	 0.0
1.22222 0	 0.0
1.24444 0	 0.0
1.24444 0.0222222	 0.0
1.22222 0.0222222	 0.0
1.24444 0	 0.0
1.26667 0	 0.0
1.26667 0.0222222	 0.0
1.24444 0.0222222	 0.0
1.26667 0	 0.0
1.28889 0	 0.0
1.28889 0.0222222	 0.0
1.26667 0.0222222	 0.0
1.28889 0	 0.0
1.31111 0	 0.0
1.31111 0.0222222	 0.0
1.28889 0.0222222	 0.0
1.31111 0	 0.0
1.33333 0	 0.0
1.33333 0.0222222	 0.0
1.31111 0.0222222	 0.0
1.33333 0	 0.0
1.35556 0	 0.0
1.35556 0.0222222	 0.0
1.33333 0.0222222	 0.0
1.35556 0	 0.0
1.37778 0	 0.0
1.37778 0.0222222	 0.0
1.35556 0.0222222	 0.0
1.37778 0	 0.0
1.4 0	 0.0
1.4 0.0222222	 0.0
1.37778 0.0222222	 0.0
1.4 0	 0.0
1.42222 0	 0.0
1.42222 0.0222222	 0.0
1.4 0.0222222	 0.0
1.42222 0	 0.0
1.44444 0	 0.0
1.44444 0.0222222	 0.0
1.42222 0.0222222	 0.0
1.44444 0	 0.0
1.46667 0	 0.0
1.46667 0.0222222	 0.0
1.44444 0.0222222	 0.0
1.46667 0	 0.0
1.48889 0	 0.0
1.48889 0.0222222	 0.0
1.46667 0.0222222	 0.0
1.48889 0	 0.0
1.51111 0	 0.0
1.51111 0.0222222	 0.0
1.48889 0.0222222	 0.0
1.51111 0	 0.0
1.53333 0	 0.0
1.53333 0.0222222	 0.0
1.51111 0.0222222	 0.0
1.53333 0	 0.0
1.55556 0	 0.0
1.55556 0.0222222	 0.0
1.53333 0.0222222	 0.0
1.55556 0	 0.0
1.57778 0	 0.0
1.57778 0.0222222	 0.0
1.55556 0.0222222	 0.0
1.57778 0	 0.0
1.6 0	 0.0
1.6 0.0222222	 0.0
1.57778 0.0222222	 0.0
1.6 0	 0.0
1.62222 0	 0.0
1.62222 0.0222222	 0.0
1.6 0.0222222	 0.0
1.62222 0	 0.0
1.64444 0	 0.0
1.64444 0.0222222	 0.0
1.62222 0.0222222	 0.0
1.64444 0	 0.0
1.66667 0	 0.0
1.66667 0.0222222	 0.0
1.64444 0.0222222	 0.0
1.66667 0	 0.0
1.68889 0	 0.0
1.68889 0.0222222	 0.0
1.66667 0.0222222	 0.0
1.68889 0	 0.0
1.71111 0	 0.0
1.71111 0.0222222	 0.0
1.68889 0.0222222	 0.0
1.71111 0	 0.0
1.73333 0	 0.0
1.73333 0.0222222	 0.0
1.71111 0.0222222	 0.0
1.73333 0	 0.0
1.75556 0	 0.0
1.75556 0.0222222	 0.0
1.73333 0.0222222	 0.0
1.75556 0	 0.0
1.77778 0	 0.0
1.77778 0.0222222	 0.0
1.75556 0.0222222	 0.0
1.77778 0	 0.0
1.8 0	 0.0
1.8 0.0222222	 0.0
1.77778 0.0222222	 0.0
1.8 0	 0.0
1.82222 0	 0.0
1.82222 0.0222222	 0.0
1.8 0.0222222	 0.0
1.82222 0	 0.0
1.84444 0	 0.0
1.84444 0.0222222	 0.0
1.82222 0.0222222	 0.0
1.84444 0	 0.0
1.86667 0	 0.0
1.86667 0.0222222	 0.0
1.84444 0.0222222	 0.0
1.86667 0	 0.0
1.88889 0	 0.0
1.88889 0.0222222	 0.0
1.86667 0.0222222	 0.0
1.88889 0	 0.0
1.91111 0	 0.0
1.91111 0.0222222	 0.0
1.88889 0.0222222	 0.0
1.91111 0	 0.0
1.93333 0	 0.0
1.93333 0.0222222	 0.0
1.91111 0.0222222	 0.0
1.93333 0	 0.0
1.95556 0	 0.0
1.95556 0.0222222	 0.0
1.93333 0.0222222	 0.0
1.95556 0	 0.0
1.97778 0	 0.0
1.97778 0.0222222	 0.0
1.95556 0.0222222	 0.0
1.97778 0	 0.0
2 0	 0.0
2 0.0222222	 0.0
1.97778 0.0222222	 0.0
2 0	 0.0
2.02222 0	 0.0
2.02222 0.0222222	 0.0
2 0.0222222	 0.0
2.02222 0	 0.0
2.04444 0	 0.0
2.04444 0.0222222	 0.0
2.02222 0.0222222	 0.0
2.04444 0	 0.0
2.06667 0	 0.0
2.06667 0.0222222	 0.0
2.04444 0.0222222	 0.0
2.06667 0	 0.0
2.08889 0	 0.0
2.08889 0.0222222	 0.0
2.06667 0.0222222	 0.0
2.08889 0	 0.0
2.11111 0	 0.0
2.11111 0.0222222	 0.0
2.08889 0.0222222	 0.0
2.11111 0	 0.0
2.13333 0	 0.0
2.13333 0.0222222	 0.0
2.11111 0.0222222	 0.0
2.13333 0	 0.0
2.15556 0	 0.0
2.15556 0.0222222	 0.0
2.13333 0.0222222	 0.0
2.15556 0	 0.0
2.17778 0	 0.0
2.17778 0.0222222	 0.0
2.15556 0.0222222	 0.0
2.17778 0	 0.0
2.2 0	 0.0
2.2 0.0222222	 0.0
2.17778 0.0222222	 0.0
2.2 0	 0.0
2.22222 0	 0.0
2.22222 0.0222222	 0.0
2.2 0.0222222	 0.0
2.22222 0	 0.0
2.24444 0	 0.0
2.24444 0.0222222	 0.0
2.22222 0.0222222	 0.0
2.24444 0	 0.0
2.26667 0	 0.0
2.26667 0.0222222	 0.0
2.24444 0.0222222	 0.0
2.26667 0	 0.0
2.28889 0	 0.0
2.28889 0.0222222	 0.0
2.26667 0.0222222	 0.0
2.28889 0	 0.0
2.31111 0	 0.0
2.31111 0.0222222	 0.0
2.28889 0.0222222	 0.0
2.31111 0	 0.0
2.33333 0	 0.0
2.33333 0.0222222	 0.0
2.31111 0.0222222	 0.0
2.33333 0	 0.0
2.35556 0	 0.0
2.35556 0.0222222	 0.0
2.33333 0.0222222	 0.0
2.35556 0	 0.0
2.37778 0	 0.0
2.37778 0.0222222	 0.0
2.35556 0.0222222	 0.0
2.37778 0	 0.0
2.4 0	 0.0
2.4 0.0222222	 0.0
2.37778 0.0222222	 0.0
2.4 0	 0.0
2.42222 0	 0.0
2.42222 0.0222222	 0.0
2.4 0.0222222	 0.0
2.42222 0	 0.0
2.44444 0	 0.0
2.44444 0.0222222	 0.0
2.42222 0.0222222	 0.0
2.44444 0	 0.0
2.46667 0	 0.0
2.46667 0.0222222	 0.0
2.44444 0.0222222	 0.0
2.46667 0	 0.0
2.48889 0	 0.0
2.48889 0.0222222	 0.0
2.46667 0.0222222	 0.0
2.48889 0	 0.0
2.51111 0	 0.0
2.51111 0.0222222	 0.0
2.48889 0.0222222	 0.0
2.51111 0	 0.0
2.53333 0	 0.0
2.53333 0.0222222	 0.0
2.51111 0.0222222	 0.0
2.53333 0	 0.0
2.55556 0	 0.0
2.55556 0.0222222	 0.0
2.53333 0.0222222	 0.0
2.55556 0	 0.0
2.57778 0	 0.0
2.57778 0.0222222	 0.0
2.55556 0.0222222	 0.0
2.57778 0	 0.0
2.6 0	 0.0
2.6 0.0222222	 0.0
2.57778 0.0222222	 0.0
2.6 0	 0.0
2.62222 0	 0.0
2.62222 0.0222222	 0.0
2.6 0.0222222	 0.0
2.62222 0	 0.0
2.64444 0	 0.0
2.64444 0.0222222	 0.0
2.62222 0.0222222	 0.0
2.64444 0	 0.0
2.66667 0	 0.0
2.66667 0.0222222	 0.0
2.64444 0.0222222	 0.0
2.66667 0	 0.0
2.68889 0	 0.0
2.68889 0.0222222	 0.0
2.66667 0.0222222	 0.0
2.68889 0	 0.0
2.71111 0	 0.0
2.71111 0.0222222	 0.0
2.68889 0.0222222	 0.0
2.71111 0	 0.0
2.73333 0	 0.0
2.73333 0.0222222	 0.0
2.71111 0.0222222	 0.0
2.73333 0	 0.0
2.75556 0	 0.0
2.75556 0.0222222	 0.0
2.73333 0.0222222	 0.0
2.75556 0	 0.0
2.77778 0	 0.0
2.77778 0.0222222	 0.0
2.75556 0.0222222	 0.0
2.77778 0	 0.0
2.8 0	 0.0
2.8 0.0222222	 0.0
2.77778 0.0222222	 0.0
2.8 0	 0.0
2.82222 0	 0.0
2.82222 0.0222222	 0.0
2.8 0.0222222	 0.0
2.82222 0	 0.0
2.84444 0	 0.0
2.84444 0.0222222	 0.0
2.82222 0.0222222	 0.0
2.84444 0	 0.0
2.86667 0	 0.0
2.86667 0.0222222	 0.0
2.84444 0.0222222	 0.0
2.86667 0	 0.0
2.88889 0	 0.0
2.88889 0.0222222	 0.0
2.86667 0.0222222	 0.0
2.88889 0	 0.0
2.91111 0	 0.0
2.91111 0.0222222	 0.0
2.88889 0.0222222	 0.0
2.91111 0	 0.0
[...]
POINT_DATA 23448
SCALARS levelset_first float
LOOKUP_TABLE default
-3.06862
-2.99543
-2.96926
-3.04245
-2.99543
-2.92323
-2.89705
-2.96926
-2.92323
-2.85201
-2.82584
-2.89705
-2.85201
-2.78178
-2.75561
-2.82584
-2.78178
-2.71254
-2.68637
-2.75561
-2.71254
-2.64429
-2.61812
-2.68637
-2.64429
-2.57703
-2.55085
-2.61812
-2.57703
-2.51075
-2.48458
-2.55085
-2.51075
-2.44546
-2.41929
-2.48458
-2.44546
-2.38116
-2.35499
-2.41929
-2.38116
-2.31785
-2.29167
-2.35499
-2.31785
-2.25552
-2.22935
-2.29167
-2.25552
-2.19418
-2.16801
-2.22935
-2.19418
-2.13383
-2.10766
-2.16801
-2.13383
-2.07447
-2.04829
-2.10766
-2.07447
-2.01609
-1.98992
-2.04829
-2.01609
-1.9587
-1.93253
-1.98992
-1.9587
-1.9023
-1.87613
-1.93253
-1.9023
-1.84689
-1.82072
-1.87613
-1.84689
-1.79246
-1.76629
-1.82072
-1.79246
-1.73903
-1.71285
-1.76629
-1.73903
-1.68658
-1.6604
-1.71285
-1.68658
-1.63512
-1.60894
-1.6604
-1.63512
-1.58464
-1.55847
-1.60894
-1.58464
-1.53515
-1.50898
-1.55847
-1.53515
-1.48666
-1.46048
-1.50898
-1.48666
-1.43914
-1.41297
-1.46048
-1.43914
-1.39262
-1.36645
-1.41297
-1.39262
-1.34708
-1.32091
-1.36645
-1.34708
-1.30254
-1.27636
-1.32091
-1.30254
-1.25897
-1.2328
-1.27636
-1.25897
-1.2164
-1.19023
-1.2328
-1.2164
-1.17482
-1.14864
-1.19023
-1.17482
-1.13422
-1.10805
-1.14864
-1.13422
-1.09461
-1.06844
-1.10805
-1.09461
-1.05599
-1.02981
-1.06844
-1.05599
-1.01835
-0.992178
-1.02981
-1.01835
-0.981703
-0.955531
-0.992178
-0.981703
-0.946044
-0.919871
-0.955531
-0.946044
-0.911372
-0.885199
-0.919871
-0.911372
-0.877688
-0.851515
-0.885199
-0.877688
-0.844991
-0.818818
-0.851515
-0.844991
-0.813282
-0.787109
-0.818818
-0.813282
-0.782561
-0.756388
-0.787109
-0.782561
-0.752827
-0.726654
-0.756388
-0.752827
-0.724081
-0.697908
-0.726654
-0.724081
-0.696323
-0.67015
-0.697908
-0.696323
-0.669552
-0.643379
-0.67015
-0.669552
-0.643769
-0.617596
-0.643379
-0.643769
-0.618974
-0.592801
-0.617596
-0.618974
-0.595166
-0.568993
-0.592801
-0.595166
-0.572346
-0.546173
-0.568993
-0.572346
-0.550514
-0.524341
-0.546173
-0.550514
-0.529669
-0.503496
-0.524341
-0.529669
-0.509812
-0.483639
-0.503496
-0.509812
-0.490942
-0.464769
-0.483639
-0.490942
-0.47306
-0.446888
-0.464769
-0.47306
-0.456166
-0.429993
-0.446888
-0.456166
-0.44026
-0.414087
-0.429993
-0.44026
-0.425341
-0.399168
-0.414087
-0.425341
-0.41141
-0.385237
-0.399168
-0.41141
-0.398466
-0.372293
-0.385237
-0.398466
-0.38651
-0.360338
-0.372293
-0.38651
-0.375542
-0.349369
-0.360338
-0.375542
-0.365562
-0.339389
-0.349369
-0.365562
-0.356569
-0.330396
-0.339389
-0.356569
-0.348563
-0.322391
-0.330396
-0.348563
-0.341546
-0.315373
-0.322391
-0.341546
-0.335516
-0.309343
-0.315373
-0.335516
-0.330474
-0.304301
-0.309343
-0.330474
-0.326419
-0.300246
-0.304301
-0.326419
-0.323352
-0.297179
-0.300246
-0.323352
-0.321273
-0.2951
-0.297179
-0.321273
-0.320181
-0.294008
-0.2951
-0.320181
-0.320077
-0.293904
-0.294008
-0.320077
-0.320961
-0.294788
-0.293904
-0.320961
-0.322832
-0.296659
-0.294788
-0.322832
-0.325691
-0.299518
-0.296659
-0.325691
-0.329537
-0.303365
-0.299518
-0.329537
-0.334372
-0.308199
-0.303365
-0.334372
-0.340194
-0.314021
-0.308199
-0.340194
-0.347003
-0.32083
-0.314021
-0.347003
-0.3548
-0.328627
-0.32083
-0.3548
-0.363585
-0.337412
-0.328627
-0.363585
-0.373358
-0.347185
-0.337412
-0.373358
-0.384118
-0.357945
-0.347185
-0.384118
-0.395866
-0.369693
-0.357945
-0.395866
-0.408601
-0.382428
-0.369693
-0.408601
-0.422324
-0.396152
-0.382428
-0.422324
-0.437035
-0.410862
-0.396152
-0.437035
-0.452734
-0.426561
-0.410862
-0.452734
-0.46942
-0.443247
-0.426561
-0.46942
-0.487093
-0.460921
-0.443247
-0.487093
-0.505755
-0.479582
-0.460921
-0.505755
-0.525404
-0.499231
-0.479582
-0.525404
-0.546041
-0.519868
-0.499231
-0.546041
-0.567665
-0.541492
-0.519868
-0.567665
-0.590277
-0.564104
-0.541492
-0.590277
-0.613877
-0.587704
-0.564104
-0.613877
-0.638464
-0.612291
-0.587704
-0.638464
-0.664039
-0.637866
-0.612291
-0.664039
-0.690602
-0.664429
-0.637866
-0.690602
-0.718152
-0.691979
-0.664429
-0.718152
-0.74669
-0.720517
-0.691979
-0.74669
-0.776216
-0.750043
-0.720517
-0.776216
-0.806729
-0.780556
-0.750043
-0.806729
-0.83823
-0.812057
-0.780556
-0.83823
-0.870718
-0.844545
-0.812057
-0.870718
-0.904195
-0.878022
-0.844545
-0.904195
-0.938658
-0.912486
-0.878022
-0.938658
-0.97411
-0.947937
-0.912486
-0.97411
-1.01055
-0.984376
-0.947937
-1.01055
-1.04798
-1.0218
-0.984376
-1.04798
-1.08639
-1.06022
-1.0218
-1.08639
-1.12579
-1.09962
-1.06022
-1.12579
-1.16618
-1.14001
-1.09962
-1.16618
-1.20756
-1.18139
-1.14001
-1.20756
-1.24993
-1.22375
-1.18139
-1.24993
-1.29328
-1.2671
-1.22375
-1.29328
-1.33762
-1.31145
-1.2671
-1.33762
-1.38295
-1.35677
-1.31145
-1.38295
-1.42926
-1.40309
-1.35677
-1.42926
-1.47657
-1.45039
-1.40309
-1.47657
-1.52486
-1.49868
-1.45039
-1.52486
-1.57414
-1.54796
-1.49868
-1.57414
-1.6244
-1.59823
-1.54796
-1.6244
-1.67566
-1.64948
-1.59823
-1.67566
-1.7279
-1.70172
-1.64948
-1.7279
-1.78113
-1.75495
-1.70172
-1.78113
-1.83534
-1.80917
-1.75495
-1.83534
-1.89055
-1.86438
-1.80917
-1.89055
-1.94674
-1.92057
-1.86438
-1.94674
-2.00392
-1.97775
-1.92057
-2.00392
-2.06209
-2.03592
-1.97775
-2.06209
-2.12124
-2.09507
-2.03592
-3.04245
-2.96926
-2.94407
-3.01726
-2.96926
-2.89705
-2.87187
-2.94407
-2.89705
-2.82584
-2.80065
-2.87187
-2.82584
-2.75561
-2.73043
-2.80065
-2.75561
-2.68637
-2.66119
-2.73043
-2.68637
-2.61812
-2.59293
-2.66119
-2.61812
-2.55085
-2.52567
-2.59293
-2.55085
-2.48458
-2.45939
-2.52567
-2.48458
-2.41929
-2.3941
-2.45939
-2.41929
-2.35499
-2.3298
-2.3941
-2.35499
-2.29167
-2.26649
-2.3298
-2.29167
-2.22935
-2.20416
-2.26649
-2.22935
-2.16801
-2.14282
-2.20416
-2.16801
-2.10766
-2.08247
-2.14282
-2.10766
-2.04829
-2.02311
-2.08247
-2.04829
-1.98992
-1.96473
-2.02311
-1.98992
-1.93253
-1.90734
-1.96473
-1.93253
-1.87613
-1.85094
-1.90734
-1.87613
-1.82072
-1.79553
-1.85094
-1.82072
-1.76629
-1.74111
-1.79553
-1.76629
-1.71285
-1.68767
-1.74111
-1.71285
-1.6604
-1.63522
-1.68767
-1.6604
-1.60894
-1.58376
-1.63522
-1.60894
-1.55847
-1.53328
-1.58376
-1.55847
-1.50898
-1.4838
-1.53328
-1.50898
-1.46048
-1.4353
-1.4838
-1.46048
-1.41297
-1.38779
-1.4353
-1.41297
-1.36645
-1.34126
-1.38779
-1.36645
-1.32091
-1.29573
-1.34126
-1.32091
-1.27636
-1.25118
-1.29573
-1.27636
-1.2328
-1.20762
-1.25118
-1.2328
-1.19023
-1.16504
-1.20762
-1.19023
-1.14864
-1.12346
-1.16504
-1.14864
-1.10805
-1.08286
-1.12346
-1.10805
-1.06844
-1.04325
-1.08286
-1.06844
-1.02981
-1.00463
-1.04325
-1.02981
-0.992178
-0.966993
-1.00463
-0.992178
-0.955531
-0.930345
-0.966993
-0.955531
-0.919871
-0.894686
-0.930345
-0.919871
-0.885199
-0.860014
-0.894686
-0.885199
-0.851515
-0.82633
-0.860014
-0.851515
-0.818818
-0.793633
-0.82633
-0.818818
-0.787109
-0.761924
-0.793633
-0.787109
-0.756388
-0.731203
-0.761924
-0.756388
-0.726654
-0.701469
-0.731203
-0.726654
-0.697908
-0.672723
-0.701469
-0.697908
-0.67015
-0.644965
-0.672723
-0.67015
-0.643379
-0.618194
-0.644965
-0.643379
-0.617596
-0.592411
-0.618194
-0.617596
-0.592801
-0.567616
-0.592411
-0.592801
-0.568993
-0.543808
-0.567616
-0.568993
-0.546173
-0.520988
-0.543808
-0.546173
-0.524341
-0.499155
-0.520988
-0.524341
-0.503496
-0.478311
-0.499155
-0.503496
-0.483639
-0.458454
-0.478311
-0.483639
-0.464769
-0.439584
-0.458454
-0.464769
-0.446888
-0.421702
-0.439584
-0.446888
-0.429993
-0.404808
-0.421702
-0.429993
-0.414087
-0.388902
-0.404808
-0.414087
-0.399168
-0.373983
-0.388902
-0.399168
-0.385237
-0.360052
-0.373983
-0.385237
-0.372293
-0.347108
-0.360052
-0.372293
-0.360338
-0.335152
-0.347108
-0.360338
-0.349369
-0.324184
-0.335152
-0.349369
-0.339389
-0.314204
-0.324184
-0.339389
-0.330396
-0.305211
-0.314204
-0.330396
-0.322391
-0.297205
-0.305211
-0.322391
-0.315373
-0.290188
-0.297205
-0.315373
-0.309343
-0.284158
-0.290188
-0.309343
-0.304301
-0.279116
-0.284158
-0.304301
-0.300246
-0.275061
-0.279116
-0.300246
-0.297179
-0.271994
-0.275061
-0.297179
-0.2951
-0.269915
-0.271994
-0.2951
-0.294008
-0.268823
-0.269915
-0.294008
-0.293904
-0.268719
-0.268823
-0.293904
-0.294788
-0.269603
-0.268719
-0.294788
-0.296659
-0.271474
-0.269603
-0.296659
-0.299518
-0.274333
-0.271474
-0.299518
-0.303365
-0.278179
-0.274333
-0.303365
-0.308199
-0.283014
-0.278179
-0.308199
-0.314021
-0.288836
-0.283014
-0.314021
-0.32083
-0.295645
-0.288836
-0.32083
-0.328627
-0.303442
-0.295645
-0.328627
-0.337412
-0.312227
-0.303442
-0.337412
-0.347185
-0.322
-0.312227
-0.347185
-0.357945
-0.33276
-0.322
-0.357945
-0.369693
-0.344508
-0.33276
-0.369693
-0.382428
-0.357243
-0.344508
-0.382428
-0.396152
-0.370966
-0.357243
-0.396152
-0.410862
-0.385677
-0.370966
-0.410862
-0.426561
-0.401376
-0.385677
-0.426561
-0.443247
-0.418062
-0.401376
-0.443247
-0.460921
-0.435735
-0.418062
-0.460921
-0.479582
-0.454397
-0.435735
-0.479582
-0.499231
-0.474046
-0.454397
-0.499231
-0.519868
-0.494683
-0.474046
-0.519868
-0.541492
-0.516307
-0.494683
-0.541492
-0.564104
-0.538919
-0.516307
-0.564104
-0.587704
-0.562519
-0.538919
-0.587704
-0.612291
-0.587106
-0.562519
-0.612291
-0.637866
-0.612681
-0.587106
-0.637866
-0.664429
-0.639244
-0.612681
-0.664429
-0.691979
-0.666794
-0.639244
-0.691979
-0.720517
-0.695332
-0.666794
-0.720517
-0.750043
-0.724858
-0.695332
-0.750043
-0.780556
-0.755371
-0.724858
-0.780556
-0.812057
-0.786872
-0.755371
-0.812057
-0.844545
-0.81936
-0.786872
-0.844545
-0.878022
-0.852837
-0.81936
-0.878022
-0.912486
-0.8873
-0.852837
-0.912486
-0.947937
-0.922752
-0.8873
-0.947937
-0.984376
-0.959191
-0.922752
-0.984376
-1.0218
-0.996618
-0.959191
-1.0218
-1.06022
-1.03503
-0.996618
-1.06022
-1.09962
-1.07443
-1.03503
-1.09962
-1.14001
-1.11482
-1.07443
-1.14001
-1.18139
-1.1562
-1.11482
-1.18139
-1.22375
-1.19857
-1.1562
-1.22375
-1.2671
-1.24192
-1.19857
-1.2671
-1.31145
-1.28626
-1.24192
-1.31145
-1.35677
-1.33159
-1.28626
-1.35677
-1.40309
-1.3779
-1.33159
-1.40309
-1.45039
-1.42521
-1.3779
-1.45039
-1.49868
-1.4735
-1.42521
-1.49868
-1.54796
-1.52278
-1.4735
-1.54796
-1.59823
-1.57304
-1.52278
-1.59823
-1.64948
-1.6243
-1.57304
-1.64948
-1.70172
-1.67654
-1.6243
-1.70172
-1.75495
-1.72977
-1.67654
-1.75495
-1.80917
-1.78399
-1.72977
-1.80917
-1.86438
-1.83919
-1.78399
-1.86438
-1.92057
-1.89538
-1.83919
-1.92057
-1.97775
-1.95256
-1.89538
-1.97775
-2.03592
-2.01073
-1.95256
-2.03592
-2.09507
-2.06989
-2.01073
-3.01726
-2.94407
-2.91987
-2.99306
-2.94407
-2.87187
-2.84767
-2.91987
-2.87187
-2.80065
-2.77646
-2.84767
-2.80065
-2.73043
-2.70623
-2.77646
-2.73043
-2.66119
-2.63699
-2.70623
-2.66119
-2.59293
-2.56874
-2.63699
-2.59293
-2.52567
-2.50147
-2.56874
-2.52567
-2.45939
-2.43519
-2.50147
-2.45939
-2.3941
-2.36991
-2.43519
-2.3941
-2.3298
-2.3056
-2.36991
-2.3298
-2.26649
-2.24229
-2.3056
-2.26649
-2.20416
-2.17996
-2.24229
-2.20416
-2.14282
-2.11862
-2.17996
-2.14282
-2.08247
-2.05827
-2.11862
-2.08247
-2.02311
-1.99891
-2.05827
-2.02311
-1.96473
-1.94054
-1.99891
-1.96473
-1.90734
-1.88315
-1.94054
-1.90734
-1.85094
-1.82675
-1.88315
-1.85094
-1.79553
-1.77133
-1.82675
-1.79553
-1.74111
-1.71691
-1.77133
-1.74111
-1.68767
-1.66347
-1.71691
-1.68767
-1.63522
-1.61102
-1.66347
-1.63522
-1.58376
-1.55956
-1.61102
-1.58376
-1.53328
-1.50909
-1.55956
-1.53328
-1.4838
-1.4596
-1.50909
-1.4838
-1.4353
-1.4111
-1.4596
-1.4353
-1.38779
-1.36359
-1.4111
-1.38779
-1.34126
-1.31706
-1.36359
-1.34126
-1.29573
-1.27153
-1.31706
-1.29573
-1.25118
-1.22698
-1.27153
-1.25118
-1.20762
-1.18342
-1.22698
-1.20762
-1.16504
-1.14085
-1.18342
-1.16504
-1.12346
-1.09926
-1.14085
-1.12346
-1.08286
-1.05866
-1.09926
-1.08286
-1.04325
-1.01905
-1.05866
-1.04325
-1.00463
-0.98043
-1.01905
-1.00463
-0.966993
-0.942795
-0.98043
-0.966993
-0.930345
-0.906148
-0.942795
-0.930345
-0.894686
-0.870488
-0.906148
-0.894686
-0.860014
-0.835816
-0.870488
-0.860014
-0.82633
-0.802132
-0.835816
-0.82633
-0.793633
-0.769436
-0.802132
-0.793633
-0.761924
-0.737727
-0.769436
-0.761924
-0.731203
-0.707005
-0.737727
-0.731203
-0.701469
-0.677272
-0.707005
-0.701469
-0.672723
-0.648526
-0.677272
-0.672723
-0.644965
-0.620767
-0.648526
-0.644965
-0.618194
-0.593997
-0.620767
-0.618194
-0.592411
-0.568214
-0.593997
-0.592411
-0.567616
-0.543418
-0.568214
-0.567616
-0.543808
-0.51961
-0.543418
-0.543808
-0.520988
-0.49679
-0.51961
-0.520988
-0.499155
-0.474958
-0.49679
-0.499155
-0.478311
-0.454113
-0.474958
-0.478311
-0.458454
-0.434256
-0.454113
-0.458454
-0.439584
-0.415387
-0.434256
-0.439584
-0.421702
-0.397505
-0.415387
-0.421702
-0.404808
-0.380611
-0.397505
-0.404808
-0.388902
-0.364704
-0.380611
-0.388902
-0.373983
-0.349785
-0.364704
-0.373983
-0.360052
-0.335854
-0.349785
-0.360052
-0.347108
-0.322911
-0.335854
-0.347108
-0.335152
-0.310955
-0.322911
-0.335152
-0.324184
-0.299987
-0.310955
-0.324184
-0.314204
-0.290006
-0.299987
-0.314204
-0.305211
-0.281013
-0.290006
-0.305211
-0.297205
-0.273008
-0.281013
-0.297205
-0.290188
-0.26599
-0.273008
-0.290188
-0.284158
-0.25996
-0.26599
-0.284158
-0.279116
-0.254918
-0.25996
-0.279116
-0.275061
-0.250863
-0.254918
-0.275061
-0.271994
-0.247796
-0.250863
-0.271994
-0.269915
-0.245717
-0.247796
-0.269915
-0.268823
-0.244625
-0.245717
-0.268823
-0.268719
-0.244521
-0.244625
-0.268719
-0.269603
-0.245405
-0.244521
-0.269603
-0.271474
-0.247276
-0.245405
-0.271474
-0.274333
-0.250135
-0.247276
-0.274333
-0.278179
-0.253982
-0.250135
-0.278179
-0.283014
-0.258816
-0.253982
-0.283014
-0.288836
-0.264638
-0.258816
-0.288836
-0.295645
-0.271448
-0.264638
-0.295645
-0.303442
-0.279245
-0.271448
-0.303442
-0.312227
-0.28803
-0.279245
-0.312227
-0.322
-0.297802
-0.28803
-0.322
-0.33276
-0.308562
-0.297802
-0.33276
-0.344508
-0.32031
-0.308562
-0.344508
-0.357243
-0.333046
-0.32031
-0.357243
-0.370966
-0.346769
-0.333046
-0.370966
-0.385677
-0.36148
-0.346769
-0.385677
-0.401376
-0.377178
-0.36148
-0.401376
-0.418062
-0.393864
-0.377178
-0.418062
-0.435735
-0.411538
-0.393864
-0.435735
-0.454397
-0.430199
-0.411538
-0.454397
-0.474046
-0.449848
-0.430199
-0.474046
-0.494683
-0.470485
-0.449848
-0.494683
-0.516307
-0.492109
-0.470485
-0.516307
-0.538919
-0.514722
-0.492109
-0.538919
-0.562519
-0.538321
-0.514722
-0.562519
-0.587106
-0.562909
-0.538321
-0.587106
-0.612681
-0.588484
-0.562909
-0.612681
-0.639244
-0.615046
-0.588484
-0.639244
-0.666794
-0.642596
-0.615046
-0.666794
-0.695332
-0.671134
-0.642596
-0.695332
-0.724858
-0.70066
-0.671134
-0.724858
-0.755371
-0.731173
-0.70066
-0.755371
-0.786872
-0.762674
-0.731173
-0.786872
-0.81936
-0.795163
-0.762674
-0.81936
-0.852837
-0.828639
-0.795163
-0.852837
-0.8873
-0.863103
-0.828639
-0.8873
-0.922752
-0.898554
-0.863103
-0.922752
-0.959191
-0.934994
-0.898554
-0.959191
-0.996618
-0.97242
-0.934994
-0.996618
-1.03503
-1.01083
-0.97242
-1.03503
-1.07443
-1.05024
-1.01083
-1.07443
-1.11482
-1.09063
-1.05024
-1.11482
-1.1562
-1.132
-1.09063
-1.1562
-1.19857
-1.17437
-1.132
-1.19857
-1.24192
-1.21772
-1.17437
-1.24192
-1.28626
-1.26206
-1.21772
-1.28626
-1.33159
-1.30739
-1.26206
-1.33159
-1.3779
-1.35371
-1.30739
-1.3779
-1.42521
-1.40101
-1.35371
-1.42521
-1.4735
-1.4493
-1.40101
-1.4735
-1.52278
-1.49858
-1.4493
-1.52278
-1.57304
-1.54885
-1.49858
-1.57304
-1.6243
-1.6001
-1.54885
-1.6243
-1.67654
-1.65234
-1.6001
-1.67654
-1.72977
-1.70557
-1.65234
-1.72977
-1.78399
-1.75979
-1.70557
-1.78399
-1.83919
-1.81499
-1.75979
-1.83919
-1.89538
-1.87118
-1.81499
-1.89538
-1.95256
-1.92836
-1.87118
-1.95256
-2.01073
-1.98653
-1.92836
-2.01073
-2.06989
-2.04569
-1.98653
-2.99306
-2.91987
-2.89666
-2.96985
-2.91987
-2.84767
-2.82446
-2.89666
-2.84767
-2.77646
-2.75325
-2.82446
-2.77646
-2.70623
-2.68302
-2.75325
-2.70623
-2.63699
-2.61378
-2.68302
-2.63699
-2.56874
-2.54553
-2.61378
-2.56874
-2.50147
-2.47826
-2.54553
-2.50147
-2.43519
-2.41198
-2.47826
-2.43519
-2.36991
-2.3467
-2.41198
-2.36991
-2.3056
-2.28239
-2.3467
-2.3056
-2.24229
-2.21908
-2.28239
-2.24229
-2.17996
-2.15675
-2.21908
-2.17996
-2.11862
-2.09542
-2.15675
-2.11862
-2.05827
-2.03506
-2.09542
-2.05827
-1.99891
-1.9757
-2.03506
-1.99891
-1.94054
-1.91733
-1.9757
-1.94054
-1.88315
-1.85994
-1.91733
-1.88315
-1.82675
-1.80354
-1.85994
-1.82675
-1.77133
-1.74812
-1.80354
-1.77133
-1.71691
-1.6937
-1.74812
-1.71691
-1.66347
-1.64026
-1.6937
-1.66347
-1.61102
-1.58781
-1.64026
-1.61102
-1.55956
-1.53635
-1.58781
-1.55956
-1.50909
-1.48588
-1.53635
-1.50909
-1.4596
-1.43639
-1.48588
-1.4596
-1.4111
-1.38789
-1.43639
-1.4111
-1.36359
-1.34038
-1.38789
-1.36359
-1.31706
-1.29385
-1.34038
-1.31706
-1.27153
-1.24832
-1.29385
-1.27153
-1.22698
-1.20377
-1.24832
-1.22698
-1.18342
-1.16021
-1.20377
-1.18342
-1.14085
-1.11764
-1.16021
-1.14085
-1.09926
-1.07605
-1.11764
-1.09926
-1.05866
-1.03545
-1.07605
-1.05866
-1.01905
-0.995843
-1.03545
-1.01905
-0.98043
-0.95722
-0.995843
-0.98043
-0.942795
-0.919585
-0.95722
-0.942795
-0.906148
-0.882938
-0.919585
-0.906148
-0.870488
-0.847278
-0.882938
-0.870488
-0.835816
-0.812607
-0.847278
-0.835816
-0.802132
-0.778922
-0.812607
-0.802132
-0.769436
-0.746226
-0.778922
-0.769436
-0.737727
-0.714517
-0.746226
-0.737727
-0.707005
-0.683795
-0.714517
-0.707005
-0.677272
-0.654062
-0.683795
-0.677272
-0.648526
-0.625316
-0.654062
-0.648526
-0.620767
-0.597557
-0.625316
-0.620767
-0.593997
-0.570787
-0.597557
-0.593997
-0.568214
-0.545004
-0.570787
-0.568214
-0.543418
-0.520208
-0.545004
-0.543418
-0.51961
-0.496401
-0.520208
-0.51961
-0.49679
-0.47358
-0.496401
-0.49679
-0.474958
-0.451748
-0.47358
-0.474958
-0.454113
-0.430903
-0.451748
-0.454113
-0.434256
-0.411046
-0.430903
-0.434256
-0.415387
-0.392177
-0.411046
-0.415387
-0.397505
-0.374295
-0.392177
-0.397505
-0.380611
-0.357401
-0.374295
-0.380611
-0.364704
-0.341494
-0.357401
-0.364704
-0.349785
-0.326575
-0.341494
-0.349785
-0.335854
-0.312644
-0.326575
-0.335854
-0.322911
-0.299701
-0.312644
-0.322911
-0.310955
-0.287745
-0.299701
-0.310955
-0.299987
-0.276777
-0.287745
-0.299987
-0.290006
-0.266796
-0.276777
-0.290006
-0.281013
-0.257803
-0.266796
-0.281013
-0.273008
-0.249798
-0.257803
-0.273008
-0.26599
-0.24278
-0.249798
-0.26599
-0.25996
-0.23675
-0.24278
-0.25996
-0.254918
-0.231708
-0.23675
-0.254918
-0.250863
-0.227653
-0.231708
-0.250863
-0.247796
-0.224587
-0.227653
-0.247796
-0.245717
-0.222507
-0.224587
-0.245717
-0.244625
-0.221416
-0.222507
-0.244625
-0.244521
-0.221311
-0.221416
-0.244521
-0.245405
-0.222195
-0.221311
-0.245405
-0.247276
-0.224066
-0.222195
-0.247276
-0.250135
-0.226925
-0.224066
-0.250135
-0.253982
-0.230772
-0.226925
-0.253982
-0.258816
-0.235606
-0.230772
-0.258816
-0.264638
-0.241428
-0.235606
-0.264638
-0.271448
-0.248238
-0.241428
-0.271448
-0.279245
-0.256035
-0.248238
-0.279245
-0.28803
-0.26482
-0.256035
-0.28803
-0.297802
-0.274592
-0.26482
-0.297802
-0.308562
-0.285352
-0.274592
-0.308562
-0.32031
-0.2971
-0.285352
-0.32031
-0.333046
-0.309836
-0.2971
-0.333046
-0.346769
-0.323559
-0.309836
-0.346769
-0.36148
-0.33827
-0.323559
-0.36148
-0.377178
-0.353968
-0.33827
-0.377178
-0.393864
-0.370654
-0.353968
-0.393864
-0.411538
-0.388328
-0.370654
-0.411538
-0.430199
-0.406989
-0.388328
-0.430199
-0.449848
-0.426638
-0.406989
-0.449848
-0.470485
-0.447275
-0.426638
-0.470485
-0.492109
-0.4689
-0.447275
-0.492109
-0.514722
-0.491512
-0.4689
-0.514722
-0.538321
-0.515111
-0.491512
-0.538321
-0.562909
-0.539699
-0.515111
-0.562909
-0.588484
-0.565274
-0.539699
-0.588484
-0.615046
-0.591836
-0.565274
-0.615046
-0.642596
-0.619387
-0.591836
-0.642596
-0.671134
-0.647925
-0.619387
-0.671134
-0.70066
-0.67745
-0.647925
-0.70066
-0.731173
-0.707963
-0.67745
-0.731173
-0.762674
-0.739464
-0.707963
-0.762674
-0.795163
-0.771953
-0.739464
-0.795163
-0.828639
-0.805429
-0.771953
-0.828639
-0.863103
-0.839893
-0.805429
-0.863103
-0.898554
-0.875345
-0.839893
-0.898554
-0.934994
-0.911784
-0.875345
-0.934994
-0.97242
-0.949211
-0.911784
-0.97242
-1.01083
-0.987625
-0.949211
-1.01083
-1.05024
-1.02703
-0.987625
-1.05024
-1.09063
-1.06742
-1.02703
-1.09063
-1.132
-1.10879
-1.06742
-1.132
-1.17437
-1.15116
-1.10879
-1.17437
-1.21772
-1.19451
-1.15116
-1.21772
-1.26206
-1.23885
-1.19451
-1.26206
-1.30739