# vtk DataFile Version 1.0
unstructured Grid
ASCII
DATASET UNSTRUCTURED_GRID
POINTS 23440 float 
0 0	 0.0
0.0222222 0	 0.0
0.0222222 0.0222222	 0.0
0 0.0222222	 0.0
0.0222222 0	 0.0
0.0444444 0	 0.0
0.0444444 0.0222222	 0.0
0.0222222 0.0222222	 0.0
0.0444444 0	 0.0
0.0666667 0	 0.0
0.0666667 0.0222222	 0.0
0.0444444 0.0222222	 0.0
0.0666667 0	 0.0
0.0888889 0	 0.0
0.0888889 0.0222222	 0.0
0.0666667 0.0222222	 0.0
0.0888889 0	 0.0
0.111111 0	 0.0
0.111111 0.0222222	 0.0
0.0888889 0.0222222	 0.0
0.111111 0	 0.0
0.133333 0	 0.0
0.133333 0.0222222	 0.0
0.111111 0.0222222	 0.0
0.133333 0	 0.0
0.155556 0	 0.0
0.155556 0.0222222	 0.0
0.133333 0.0222222	 0.0
0.155556 0	 0.0
0.177778 0	 0.0
0.177778 0.0222222	 0.0
0.155556 0.0222222	 0.0
0.177778 0	 0.0
0.2 0	 0.0
0.2 0.0222222	 0.0
0.177778 0.0222222	 0.0
0.2 0	 0.0
0.222222 0	 0.0
0.222222 0.0222222	 0.0
0.2 0.0222222	 0.0
0.222222 0	 0.0
0.244444 0	 0.0
0.244444 0.0222222	 0.0
0.222222 0.0222222	 0.0
0.244444 0	 0.0
0.266667 0	 0.0
0.266667 0.0222222	 0.0
0.244444 0.0222222	 0.0
0.266667 0	 0.0
0.288889 0	 0.0
0.288889 0.0222222	 0.0
0.266667 0.0222222	 0.0
0.288889 0	 0.0
0.311111 0	 0.0
0.311111 0.0222222	 0.0
0.288889 0.0222222	 0.0
0.311111 0	 0.0
0.333333 0	 0.0
0.333333 0.0222222	 0.0
0.311111 0.0222222	 0.0
0.333333 0	 0.0
0.355556 0	 0.0
0.355556 0.0222222	 0.0
0.333333 0.0222222	 0.0
0.355556 0	 0.0
0.377778 0	 0.0
0.377778 0.0222222	 0.0
0.355556 0.0222222	 0.0
0.377778 0	 0.0
0.4 0	 0.0
0.4 0.0222222	 0.0
0.377778 0.0222222	 0.0
0.4 0	 0.0
0.422222 0	 0.0
0.422222 0.0222222	 0.0
0.4 0.0222222	 0.0
0.422222 0	 0.0
0.444444 0	 0.0
0.444444 0.0222222	 0.0
0.422222 0.0222222	 0.0
0.444444 0	 0.0
0.466667 0	 0.0
0.466667 0.0222222	 0.0
0.444444 0.0222222	 0.0
0.466667 0	 0.0
0.488889 0	 0.0
0.488889 0.0222222	 0.0
0.466667 0.0222222	 0.0
0.488889 0	 0.0
0.511111 0	 0.0
0.511111 0.0222222	 0.0
0.488889 0.0222222	 0.0
0.511111 0	 0.0
0.533333 0	 0.0
0.533333 0.0222222	 0.0
0.511111 0.0222222	 0.0
0.533333 0	 0.0
0.555556 0	 0.0
0.555556 0.0222222	 0.0
0.533333 0.0222222	 0.0
0.555556 0	 0.0
0.577778 0	 0.0
0.577778 0.0222222	 0.0
0.555556 0.0222222	 0.0
0.577778 0	 0.0
0.6 0	 0.0
0.6 0.0222222	 0.0
0.577778 0.0222222	 0.0
0.6 0	 0.0
0.622222 0	 0.0
0.622222 0.0222222	 0.0
0.6 0.0222222	 0.0
0.622222 0	 0.0
0.644444 0	 0.0
0.644444 0.0222222	 0.0
0.622222 0.0222222	 0.0
0.644444 0	 0.0
0.666667 0	 0.0
0.666667 0.0222222	 0.0
0.644444 0.0222222	 0.0
0.666667 0	 0.0
0.688889 0	 0.0
0.688889 0.0222222	 0.0
0.666667 0.0222222	 0.0
0.688889 0	 0.0
0.711111 0	 0.0
0.711111 0.0222222	 0.0
0.688889 0.0222222	 0.0
0.711111 0	 0.0
0.733333 0	 0.0
0.733333 0.0222222	 0.0
0.711111 0.0222222	 0.0
0.733333 0	 0.0
0.755556 0	 0.0
0.755556 0.0222222	 0.0
0.733333 0.0222222	 0.0
0.755556 0	 0.0
0.777778 0	 0.0
0.777778 0.0222222	 0.0
0.755556 0.0222222	 0.0
0.777778 0	 0.0
0.8 0	 0.0
0.8 0.0222222	 0.0
0.777778 0.0222222	 0.0
0.8 0	 0.0
0.822222 0	 0.0
0.822222 0.0222222	 0.0
0.8 0.0222222	 0.0
0.822222 0	 0.0
0.844444 0	 0.0
0.844444 0.0222222	 0.0
0.822222 0.0222222	 0.0
0.844444 0	 0.0
0.866667 0	 0.0
0.866667 0.0222222	 0.0
0.844444 0.0222222	 0.0
0.866667 0	 0.0
0.888889 0	 0.0
0.888889 0.0222222	 0.0
0.866667 0.0222222	 0.0
0.888889 0	 0.0
0.911111 0	 0.0
0.911111 0.0222222	 0.0
0.888889 0.0222222	 0.0
0.911111 0	 0.0
0.933333 0	 0.0
0.933333 0.0222222	 0.0
0.911111 0.0222222	 0.0
0.933333 0	 0.0
0.955556 0	 0.0
0.955556 0.0222222	 0.0
0.933333 0.0222222	 0.0
0.955556 0	 0.0
0.977778 0	 0.0
0.977778 0.0222222	 0.0
0.955556 0.0222222	 0.0
0.977778 0	 0.0
1 0	 0.0
1 0.0222222	 0.0
0.977778 0.0222222	 0.0
1 0	 0.0
1.02222 0	 0.0
1.02222 0.0222222	 0.0
1 0.0222222	 0.0
1.02222 0	 0.0
1.04444 0	 0.0
1.04444 0.0222222	 0.0
1.02222 0.0222222	 0.0
1.04444 0	 0.0
1.06667 0	 0.0
1.06667 0.0222222	 0.0
1.04444 0.0222222	 0.0
1.06667 0	 0.0
1.08889 0	 0.0
1.08889 0.0222222	 0.0
1.06667 0.0222222	 0.0
1.08889 0	 0.0
1.11111 0	 0.0
1.11111 0.0222222	 0.0
1.08889 0.0222222	 0.0
1.11111 0	 0.0
1.13333 0	 0.0
1.13333 0.0222222	 0.0
1.11111 0.0222222	 0.0
1.13333 0	 0.0
1.15556 0	 0.0
1.15556 0.0222222	 0.0
1.13333 0.0222222	 0.0
1.15556 0	 0.0
1.17778 0	 0.0
1.17778 0.0222222	 0.0
1.15556 0.0222222	 0.0
1.17778 0	 0.0
1.2 0	 0.0
1.2 0.0222222	 0.0
1.17778 0.0222222	 0.0
1.2 0	 0.0
1.22222 0	 0.0
1.22222 0.0222222	 0.0
1.2 0.0222222	 0.0
1.22222 0	 0.0
1.24444 0	 0.0
1.24444 0.0222222	 0.0
1.22222 0.0222222	 0.0
1.24444 0	 0.0
1.26667 0	 0.0
1.26667 0.0222222	 0.0
1.24444 0.0222222	 0.0
1.26667 0	 0.0
1.28889 0	 0.0
1.28889 0.0222222	 0.0
1.26667 0.0222222	 0.0
1.28889 0	 0.0
1.31111 0	 0.0
1.31111 0.0222222	 0.0
1.28889 0.0222222	 0.0
1.31111 0	 0.0
1.33333 0	 0.0
1.33333 0.0222222	 0.0
1.31111 0.0222222	 0.0
1.33333 0	 0.0
1.35556 0	 0.0
1.35556 0.0222222	 0.0
1.33333 0.0222222	 0.0
1.35556 0	 0.0
1.37778 0	 0.0
1.37778 0.0222222	 0.0
1.35556 0.0222222	 0.0
1.37778 0	 0.0
1.4 0	 0.0
1.4 0.0222222	 0.0
1.37778 0.0222222	 0.0
1.4 0	 0.0
1.42222 0	 0.0
1.42222 0.0222222	 0.0
1.4 0.0222222	 0.0
1.42222 0	 0.0
1.44444 0	 0.0
1.44444 0.0222222	 0.0
1.42222 0.0222222	 0.0
1.44444 0	 0.0
1.46667 0	 0.0
1.46667 0.0222222	 0.0
1.44444 0.0222222	 0.0
1.46667 0	 0.0
1.48889 0	 0.0
1.48889 0.0222222	 0.0
1.46667 0.0222222	 0.0
1.48889 0	 0.0
1.51111 0	 0.0
1.51111 0.0222222	 0.0
1.48889 0.0222222	 0.0
1.51111 0	 0.0
1.53333 0	 0.0
1.53333 0.0222222	 0.0
1.51111 0.0222222	 0.0
1.53333 0	 0.0
1.55556 0	 0.0
1.55556 0.0222222	 0.0
1.53333 0.0222222	 0.0
1.55556 0	 0.0
1.57778 0	 0.0
1.57778 0.0222222	 0.0
1.55556 0.0222222	 0.0
1.57778 0	 0.0
1.6 0	 0.0
1.6 0.0222222	 0.0
1.57778 0.0222222	 0.0
1.6 0	 0.0
1.62222 0	 0.0
1.62222 0.0222222	 0.0
1.6 0.0222222	 0.0
1.62222 0	 0.0
1.64444 0	 0.0
1.64444 0.0222222	 0.0
1.62222 0.0222222	 0.0
1.64444 0	 0.0
1.66667 0	 0.0
1.66667 0.0222222	 0.0
1.64444 0.0222222	 0.0
1.66667 0	 0.0
1.68889 0	 0.0
1.68889 0.0222222	 0.0
1.66667 0.0222222	 0.0
1.68889 0	 0.0
1.71111 0	 0.0
1.71111 0.0222222	 0.0
1.68889 0.0222222	 0.0
1.71111 0	 0.0
1.73333 0	 0.0
1.73333 0.0222222	 0.0
1.71111 0.0222222	 0.0
1.73333 0	 0.0
1.75556 0	 0.0
1.75556 0.0222222	 0.0
1.73333 0.0222222	 0.0
1.75556 0	 0.0
1.77778 0	 0.0
1.77778 0.0222222	 0.0
1.75556 0.0222222	 0.0
1.77778 0	 0.0
1.8 0	 0.0
1.8 0.0222222	 0.0
1.77778 0.0222222	 0.0
1.8 0	 0.0
1.82222 0	 0.0
1.82222 0.0222222	 0.0
1.8 0.0222222	 0.0
1.82222 0	 0.0
1.84444 0	 0.0
1.84444 0.0222222	 0.0
1.82222 0.0222222	 0.0
1.84444 0	 0.0
1.86667 0	 0.0
1.86667 0.0222222	 0.0
1.84444 0.0222222	 0.0
1.86667 0	 0.0
1.88889 0	 0.0
1.88889 0.0222222	 0.0
1.86667 0.0222222	 0.0
1.88889 0	 0.0
1.91111 0	 0.0
1.91111 0.0222222	 0.0
1.88889 0.0222222	 0.0
1.91111 0	 0.0
1.93333 0	 0.0
1.93333 0.0222222	 0.0
1.91111 0.0222222	 0.0
1.93333 0	 0.0
1.95556 0	 0.0
1.95556 0.0222222	 0.0
1.93333 0.0222222	 0.0
1.95556 0	 0.0
1.97778 0	 0.0
1.97778 0.0222222	 0.0
1.95556 0.0222222	 0.0
1.97778 0	 0.0
2 0	 0.0
2 0.0222222	 0.0
1.97778 0.0222222	 0.0
2 0	 0.0
2.02222 0	 0.0
2.02222 0.0222222	 0.0
2 0.0222222	 0.0
2.02222 0	 0.0
2.04444 0	 0.0
2.04444 0.0222222	 0.0
2.02222 0.0222222	 0.0
2.04444 0	 0.0
2.06667 0	 0.0
2.06667 0.0222222	 0.0
2.04444 0.0222222	 0.0
2.06667 0	 0.0
2.08889 0	 0.0
2.08889 0.0222222	 0.0
2.06667 0.0222222	 0.0
2.08889 0	 0.0
2.11111 0	 0.0
2.11111 0.0222222	 0.0
2.08889 0.0222222	 0.0
2.11111 0	 0.0
2.13333 0	 0.0
2.13333 0.0222222	 0.0
2.11111 0.0222222	 0.0
2.13333 0	 0.0
2.15556 0	 0.0
2.15556 0.0222222	 0.0
2.13333 0.0222222	 0.0
2.15556 0	 0.0
2.17778 0	 0.0
2.17778 0.0222222	 0.0
2.15556 0.0222222	 0.0
2.17778 0	 0.0
2.2 0	 0.0
2.2 0.0222222	 0.0
2.17778 0.0222222	 0.0
2.2 0	 0.0
2.22222 0	 0.0
2.22222 0.0222222	 0.0
2.2 0.0222222	 0.0
2.22222 0	 0.0
2.24444 0	 0.0
2.24444 0.0222222	 0.0
2.22222 0.0222222	 0.0
2.24444 0	 0.0
2.26667 0	 0.0
2.26667 0.0222222	 0.0
2.24444 0.0222222	 0.0
2.26667 0	 0.0
2.28889 0	 0.0
2.28889 0.0222222	 0.0
2.26667 0.0222222	 0.0
2.28889 0	 0.0
2.31111 0	 0.0
2.31111 0.0222222	 0.0
2.28889 0.0222222	 0.0
2.31111 0	 0.0
2.33333 0	 0.0
2.33333 0.0222222	 0.0
2.31111 0.0222222	 0.0
2.33333 0	 0.0
2.35556 0	 0.0
2.35556 0.0222222	 0.0
2.33333 0.0222222	 0.0
2.35556 0	 0.0
2.37778 0	 0.0
2.37778 0.0222222	 0.0
2.35556 0.0222222	 0.0
2.37778 0	 0.0
2.4 0	 0.0
2.4 0.0222222	 0.0
2.37778 0.0222222	 0.0
2.4 0	 0.0
2.42222 0	 0.0
2.42222 0.0222222	 0.0
2.4 0.0222222	 0.0
2.42222 0	 0.0
2.44444 0	 0.0
2.44444 0.0222222	 0.0
2.42222 0.0222222	 0.0
2.44444 0	 0.0
2.46667 0	 0.0
2.46667 0.0222222	 0.0
2.44444 0.0222222	 0.0
2.46667 0	 0.0
2.48889 0	 0.0
2.48889 0.0222222	 0.0
2.46667 0.0222222	 0.0
2.48889 0	 0.0
2.51111 0	 0.0
2.51111 0.0222222	 0.0
2.48889 0.0222222	 0.0
2.51111 0	 0.0
2.53333 0	 0.0
2.53333 0.0222222	 0.0
2.51111 0.0222222	 0.0
2.53333 0	 0.0
2.55556 0	 0.0
2.55556 0.0222222	 0.0
2.53333 0.0222222	 0.0
2.55556 0	 0.0
2.57778 0	 0.0
2.57778 0.0222222	 0.0
2.55556 0.0222222	 0.0
2.57778 0	 0.0
2.6 0	 0.0
2.6 0.0222222	 0.0
2.57778 0.0222222	 0.0
2.6 0	 0.0
2.62222 0	 0.0
2.62222 0.0222222	 0.0
2.6 0.0222222	 0.0
2.62222 0	 0.0
2.64444 0	 0.0
2.64444 0.0222222	 0.0
2.62222 0.0222222	 0.0
2.64444 0	 0.0
2.66667 0	 0.0
2.66667 0.0222222	 0.0
2.64444 0.0222222	 0.0
2.66667 0	 0.0
2.68889 0	 0.0
2.68889 0.0222222	 0.0
2.66667 0.0222222	 0.0
2.68889 0	 0.0
2.71111 0	 0.0
2.71111 0.0222222	 0.0
2.68889 0.0222222	 0.0
2.71111 0	 0.0
2.73333 0	 0.0
2.73333 0.0222222	 0.0
2.71111 0.0222222	 0.0
2.73333 0	 0.0
2.75556 0	 0.0
2.75556 0.0222222	 0.0
2.73333 0.0222222	 0.0
2.75556 0	 0.0
2.77778 0	 0.0
2.77778 0.0222222	 0.0
2.75556 0.0222222	 0.0
2.77778 0	 0.0
2.8 0	 0.0
2.8 0.0222222	 0.0
2.77778 0.0222222	 0.0
2.8 0	 0.0
2.82222 0	 0.0
2.82222 0.0222222	 0.0
2.8 0.0222222	 0.0
2.82222 0	 0.0
2.84444 0	 0.0
2.84444 0.0222222	 0.0
2.82222 0.0222222	 0.0
2.84444 0	 0.0
2.86667 0	 0.0
2.86667 0.0222222	 0.0
2.84444 0.0222222	 0.0
2.86667 0	 0.0
2.88889 0	 0.0
2.88889 0.0222222	 0.0
2.86667 0.0222222	 0.0
2.88889 0	 0.0
2.91111 0	 0.0
2.91111 0.0222222	 0.0
2.88889 0.0222222	 0.0
2.91111 0	 0.0
[...]
POINT_DATA 23440
SCALARS levelset_first float
LOOKUP_TABLE default
-5.76457
-5.66136
-5.63518
-5.7384
-5.66136
-5.55913
-5.53296
-5.63518
-5.55913
-5.4579
-5.43172
-5.53296
-5.4579
-5.35765
-5.33148
-5.43172
-5.35765
-5.25839
-5.23222
-5.33148
-5.25839
-5.16012
-5.13394
-5.23222
-5.16012
-5.06283
-5.03666
-5.13394
-5.06283
-4.96653
-4.94036
-5.03666
-4.96653
-4.87122
-4.84505
-4.94036
-4.87122
-4.7769
-4.75073
-4.84505
-4.7769
-4.68357
-4.65739
-4.75073
-4.68357
-4.59122
-4.56505
-4.65739
-4.59122
-4.49986
-4.47369
-4.56505
-4.49986
-4.40949
-4.38332
-4.47369
-4.40949
-4.32011
-4.29393
-4.38332
-4.32011
-4.23171
-4.20554
-4.29393
-4.23171
-4.1443
-4.11813
-4.20554
-4.1443
-4.05788
-4.03171
-4.11813
-4.05788
-3.97245
-3.94627
-4.03171
-3.97245
-3.888
-3.86183
-3.94627
-3.888
-3.80454
-3.77837
-3.86183
-3.80454
-3.72207
-3.6959
-3.77837
-3.72207
-3.64059
-3.61442
-3.6959
-3.64059
-3.5601
-3.53392
-3.61442
-3.5601
-3.48059
-3.45442
-3.53392
-3.48059
-3.40207
-3.3759
-3.45442
-3.40207
-3.32454
-3.29836
-3.3759
-3.32454
-3.24799
-3.22182
-3.29836
-3.24799
-3.17244
-3.14626
-3.22182
-3.17244
-3.09787
-3.07169
-3.14626
-3.09787
-3.02428
-2.99811
-3.07169
-3.02428
-2.95169
-2.92552
-2.99811
-2.95169
-2.88008
-2.85391
-2.92552
-2.88008
-2.80947
-2.78329
-2.85391
-2.80947
-2.73984
-2.71366
-2.78329
-2.73984
-2.67119
-2.64502
-2.71366
-2.67119
-2.60354
-2.57736
-2.64502
-2.60354
-2.53687
-2.5107
-2.57736
-2.53687
-2.47119
-2.44502
-2.5107
-2.47119
-2.4065
-2.38032
-2.44502
-2.4065
-2.34279
-2.31662
-2.38032
-2.34279
-2.28007
-2.2539
-2.31662
-2.28007
-2.21834
-2.19217
-2.2539
-2.21834
-2.1576
-2.13143
-2.19217
-2.1576
-2.09785
-2.07168
-2.13143
-2.09785
-2.03908
-2.01291
-2.07168
-2.03908
-1.9813
-1.95513
-2.01291
-1.9813
-1.92451
-1.89834
-1.95513
-1.92451
-1.86871
-1.84253
-1.89834
-1.86871
-1.81389
-1.78772
-1.84253
-1.81389
-1.76006
-1.73389
-1.78772
-1.76006
-1.70722
-1.68105
-1.73389
-1.70722
-1.65537
-1.6292
-1.68105
-1.65537
-1.6045
-1.57833
-1.6292
-1.6045
-1.55463
-1.52845
-1.57833
-1.55463
-1.50574
-1.47956
-1.52845
-1.50574
-1.45783
-1.43166
-1.47956
-1.45783
-1.41092
-1.38475
-1.43166
-1.41092
-1.36499
-1.33882
-1.38475
-1.36499
-1.32005
-1.29388
-1.33882
-1.32005
-1.2761
-1.24993
-1.29388
-1.2761
-1.23314
-1.20696
-1.24993
-1.23314
-1.19116
-1.16499
-1.20696
-1.19116
-1.15017
-1.124
-1.16499
-1.15017
-1.11017
-1.084
-1.124
-1.11017
-1.07116
-1.04498
-1.084
-1.07116
-1.03313
-1.00696
-1.04498
-1.03313
-0.996093
-0.96992
-1.00696
-0.996093
-0.960042
-0.933869
-0.96992
-0.960042
-0.924979
-0.898807
-0.933869
-0.924979
-0.890904
-0.864731
-0.898807
-0.890904
-0.857817
-0.831644
-0.864731
-0.857817
-0.825717
-0.799544
-0.831644
-0.825717
-0.794604
-0.768432
-0.799544
-0.794604
-0.76448
-0.738307
-0.768432
-0.76448
-0.735343
-0.70917
-0.738307
-0.735343
-0.707193
-0.681021
-0.70917
-0.707193
-0.680032
-0.653859
-0.681021
-0.680032
-0.653858
-0.627685
-0.653859
-0.653858
-0.628671
-0.602499
-0.627685
-0.628671
-0.604473
-0.5783
-0.602499
-0.604473
-0.581262
-0.555089
-0.5783
-0.581262
-0.559038
-0.532865
-0.555089
-0.559038
-0.537802
-0.51163
-0.532865
-0.537802
-0.517554
-0.491382
-0.51163
-0.517554
-0.498294
-0.472121
-0.491382
-0.498294
-0.480021
-0.453848
-0.472121
-0.480021
-0.462736
-0.436563
-0.453848
-0.462736
-0.446439
-0.420266
-0.436563
-0.446439
-0.431129
-0.404956
-0.420266
-0.431129
-0.416807
-0.390634
-0.404956
-0.416807
-0.403472
-0.377299
-0.390634
-0.403472
-0.391125
-0.364952
-0.377299
-0.391125
-0.379766
-0.353593
-0.364952
-0.379766
-0.369394
-0.343222
-0.353593
-0.369394
-0.360011
-0.333838
-0.343222
-0.360011
-0.351614
-0.325442
-0.333838
-0.351614
-0.344206
-0.318033
-0.325442
-0.344206
-0.337785
-0.311612
-0.318033
-0.337785
-0.332352
-0.306179
-0.311612
-0.332352
-0.327906
-0.301733
-0.306179
-0.327906
-0.324448
-0.298275
-0.301733
-0.324448
-0.321978
-0.295805
-0.298275
-0.321978
-0.320495
-0.294322
-0.295805
-0.320495
-0.32
-0.293827
-0.294322
-0.32
-0.320493
-0.29432
-0.293827
-0.320493
-0.321973
-0.2958
-0.29432
-0.321973
-0.324441
-0.298268
-0.2958
-0.324441
-0.327897
-0.301724
-0.298268
-0.327897
-0.33234
-0.306167
-0.301724
-0.33234
-0.337771
-0.311598
-0.306167
-0.337771
-0.344189
-0.318016
-0.311598
-0.344189
-0.351596
-0.325423
-0.318016
-0.351596
-0.359989
-0.333817
-0.325423
-0.359989
-0.369371
-0.343198
-0.333817
-0.369371
-0.37974
-0.353567
-0.343198
-0.37974
-0.391097
-0.364924
-0.353567
-0.391097
-0.403442
-0.377269
-0.364924
-0.403442
-0.416774
-0.390601
-0.377269
-0.416774
-0.431093
-0.404921
-0.390601
-0.431093
-0.446401
-0.420228
-0.404921
-0.446401
-0.462696
-0.436523
-0.420228
-0.462696
-0.479979
-0.453806
-0.436523
-0.479979
-0.498249
-0.472076
-0.453806
-0.498249
-0.517507
-0.491335
-0.472076
-0.517507
-0.537753
-0.51158
-0.491335
-0.537753
-0.558986
-0.532814
-0.51158
-0.558986
-0.581208
-0.555035
-0.532814
-0.581208
-0.604416
-0.578243
-0.555035
-0.604416
-0.628613
-0.60244
-0.578243
-0.628613
-0.653797
-0.627624
-0.60244
-0.653797
-0.679968
-0.653795
-0.627624
-0.679968
-0.707128
-0.680955
-0.653795
-0.707128
-0.735275
-0.709102
-0.680955
-0.735275
-0.764409
-0.738236
-0.709102
-5.7384
-5.63518
-5.61
-5.71321
-5.63518
-5.53296
-5.50778
-5.61
-5.53296
-5.43172
-5.40654
-5.50778
-5.43172
-5.33148
-5.30629
-5.40654
-5.33148
-5.23222
-5.20703
-5.30629
-5.23222
-5.13394
-5.10876
-5.20703
-5.13394
-5.03666
-5.01147
-5.10876
-5.03666
-4.94036
-4.91518
-5.01147
-4.94036
-4.84505
-4.81987
-4.91518
-4.84505
-4.75073
-4.72554
-4.81987
-4.75073
-4.65739
-4.63221
-4.72554
-4.65739
-4.56505
-4.53986
-4.63221
-4.56505
-4.47369
-4.4485
-4.53986
-4.47369
-4.38332
-4.35813
-4.4485
-4.38332
-4.29393
-4.26875
-4.35813
-4.29393
-4.20554
-4.18035
-4.26875
-4.20554
-4.11813
-4.09294
-4.18035
-4.11813
-4.03171
-4.00652
-4.09294
-4.03171
-3.94627
-3.92109
-4.00652
-3.94627
-3.86183
-3.83664
-3.92109
-3.86183
-3.77837
-3.75319
-3.83664
-3.77837
-3.6959
-3.67071
-3.75319
-3.6959
-3.61442
-3.58923
-3.67071
-3.61442
-3.53392
-3.50874
-3.58923
-3.53392
-3.45442
-3.42923
-3.50874
-3.45442
-3.3759
-3.35071
-3.42923
-3.3759
-3.29836
-3.27318
-3.35071
-3.29836
-3.22182
-3.19663
-3.27318
-3.22182
-3.14626
-3.12108
-3.19663
-3.14626
-3.07169
-3.04651
-3.12108
-3.07169
-2.99811
-2.97293
-3.04651
-2.99811
-2.92552
-2.90033
-2.97293
-2.92552
-2.85391
-2.82873
-2.90033
-2.85391
-2.78329
-2.75811
-2.82873
-2.78329
-2.71366
-2.68848
-2.75811
-2.71366
-2.64502
-2.61983
-2.68848
-2.64502
-2.57736
-2.55218
-2.61983
-2.57736
-2.5107
-2.48551
-2.55218
-2.5107
-2.44502
-2.41983
-2.48551
-2.44502
-2.38032
-2.35514
-2.41983
-2.38032
-2.31662
-2.29143
-2.35514
-2.31662
-2.2539
-2.22872
-2.29143
-2.2539
-2.19217
-2.16699
-2.22872
-2.19217
-2.13143
-2.10624
-2.16699
-2.13143
-2.07168
-2.04649
-2.10624
-2.07168
-2.01291
-1.98772
-2.04649
-2.01291
-1.95513
-1.92994
-1.98772
-1.95513
-1.89834
-1.87315
-1.92994
-1.89834
-1.84253
-1.81735
-1.87315
-1.84253
-1.78772
-1.76253
-1.81735
-1.78772
-1.73389
-1.70871
-1.76253
-1.73389
-1.68105
-1.65586
-1.70871
-1.68105
-1.6292
-1.60401
-1.65586
-1.6292
-1.57833
-1.55315
-1.60401
-1.57833
-1.52845
-1.50327
-1.55315
-1.52845
-1.47956
-1.45438
-1.50327
-1.47956
-1.43166
-1.40648
-1.45438
-1.43166
-1.38475
-1.35956
-1.40648
-1.38475
-1.33882
-1.31363
-1.35956
-1.33882
-1.29388
-1.26869
-1.31363
-1.29388
-1.24993
-1.22474
-1.26869
-1.24993
-1.20696
-1.18178
-1.22474
-1.20696
-1.16499
-1.1398
-1.18178
-1.16499
-1.124
-1.09881
-1.1398
-1.124
-1.084
-1.05881
-1.09881
-1.084
-1.04498
-1.0198
-1.05881
-1.04498
-1.00696
-0.981773
-1.0198
-1.00696
-0.96992
-0.944735
-0.981773
-0.96992
-0.933869
-0.908684
-0.944735
-0.933869
-0.898807
-0.873621
-0.908684
-0.898807
-0.864731
-0.839546
-0.873621
-0.864731
-0.831644
-0.806459
-0.839546
-0.831644
-0.799544
-0.774359
-0.806459
-0.799544
-0.768432
-0.743246
-0.774359
-0.768432
-0.738307
-0.713122
-0.743246
-0.738307
-0.70917
-0.683985
-0.713122
-0.70917
-0.681021
-0.655835
-0.683985
-0.681021
-0.653859
-0.628674
-0.655835
-0.653859
-0.627685
-0.6025
-0.628674
-0.627685
-0.602499
-0.577313
-0.6025
-0.602499
-0.5783
-0.553115
-0.577313
-0.5783
-0.555089
-0.529904
-0.553115
-0.555089
-0.532865
-0.50768
-0.529904
-0.532865
-0.51163
-0.486444
-0.50768
-0.51163
-0.491382
-0.466196
-0.486444
-0.491382
-0.472121
-0.446936
-0.466196
-0.472121
-0.453848
-0.428663
-0.446936
-0.453848
-0.436563
-0.411378
-0.428663
-0.436563
-0.420266
-0.395081
-0.411378
-0.420266
-0.404956
-0.379771
-0.395081
-0.404956
-0.390634
-0.365449
-0.379771
-0.390634
-0.377299
-0.352114
-0.365449
-0.377299
-0.364952
-0.339767
-0.352114
-0.364952
-0.353593
-0.328408
-0.339767
-0.353593
-0.343222
-0.318036
-0.328408
-0.343222
-0.333838
-0.308653
-0.318036
-0.333838
-0.325442
-0.300256
-0.308653
-0.325442
-0.318033
-0.292848
-0.300256
-0.318033
-0.311612
-0.286427
-0.292848
-0.311612
-0.306179
-0.280994
-0.286427
-0.306179
-0.301733
-0.276548
-0.280994
-0.301733
-0.298275
-0.27309
-0.276548
-0.298275
-0.295805
-0.27062
-0.27309
-0.295805
-0.294322
-0.269137
-0.27062
-0.294322
-0.293827
-0.268642
-0.269137
-0.293827
-0.29432
-0.269135
-0.268642
-0.29432
-0.2958
-0.270615
-0.269135
-0.2958
-0.298268
-0.273083
-0.270615
-0.298268
-0.301724
-0.276539
-0.273083
-0.301724
-0.306167
-0.280982
-0.276539
-0.306167
-0.311598
-0.286413
-0.280982
-0.311598
-0.318016
-0.292831
-0.286413
-0.318016
-0.325423
-0.300238
-0.292831
-0.325423
-0.333817
-0.308631
-0.300238
-0.333817
-0.343198
-0.318013
-0.308631
-0.343198
-0.353567
-0.328382
-0.318013
-0.353567
-0.364924
-0.339739
-0.328382
-0.364924
-0.377269
-0.352083
-0.339739
-0.377269
-0.390601
-0.365416
-0.352083
-0.390601
-0.404921
-0.379735
-0.365416
-0.404921
-0.420228
-0.395043
-0.379735
-0.420228
-0.436523
-0.411338
-0.395043
-0.436523
-0.453806
-0.428621
-0.411338
-0.453806
-0.472076
-0.446891
-0.428621
-0.472076
-0.491335
-0.466149
-0.446891
-0.491335
-0.51158
-0.486395
-0.466149
-0.51158
-0.532814
-0.507628
-0.486395
-0.532814
-0.555035
-0.52985
-0.507628
-0.555035
-0.578243
-0.553058
-0.52985
-0.578243
-0.60244
-0.577255
-0.553058
-0.60244
-0.627624
-0.602439
-0.577255
-0.627624
-0.653795
-0.62861
-0.602439
-0.653795
-0.680955
-0.65577
-0.62861
-0.680955
-0.709102
-0.683917
-0.65577
-0.709102
-0.738236
-0.713051
-0.683917
-5.71321
-5.61
-5.5858
-5.68901
-5.61
-5.50778
-5.48358
-5.5858
-5.50778
-5.40654
-5.38234
-5.48358
-5.40654
-5.30629
-5.28209
-5.38234
-5.30629
-5.20703
-5.18283
-5.28209
-5.20703
-5.10876
-5.08456
-5.18283
-5.10876
-5.01147
-4.98728
-5.08456
-5.01147
-4.91518
-4.89098
-4.98728
-4.91518
-4.81987
-4.79567
-4.89098
-4.81987
-4.72554
-4.70135
-4.79567
-4.72554
-4.63221
-4.60801
-4.70135
-4.63221
-4.53986
-4.51566
-4.60801
-4.53986
-4.4485
-4.42431
-4.51566
-4.4485
-4.35813
-4.33393
-4.42431
-4.35813
-4.26875
-4.24455
-4.33393
-4.26875
-4.18035
-4.15615
-4.24455
-4.18035
-4.09294
-4.06875
-4.15615
-4.09294
-4.00652
-3.98232
-4.06875
-4.00652
-3.92109
-3.89689
-3.98232
-3.92109
-3.83664
-3.81245
-3.89689
-3.83664
-3.75319
-3.72899
-3.81245
-3.75319
-3.67071
-3.64652
-3.72899
-3.67071
-3.58923
-3.56503
-3.64652
-3.58923
-3.50874
-3.48454
-3.56503
-3.50874
-3.42923
-3.40503
-3.48454
-3.42923
-3.35071
-3.32651
-3.40503
-3.35071
-3.27318
-3.24898
-3.32651
-3.27318
-3.19663
-3.17244
-3.24898
-3.19663
-3.12108
-3.09688
-3.17244
-3.12108
-3.04651
-3.02231
-3.09688
-3.04651
-2.97293
-2.94873
-3.02231
-2.97293
-2.90033
-2.87614
-2.94873
-2.90033
-2.82873
-2.80453
-2.87614
-2.82873
-2.75811
-2.73391
-2.80453
-2.75811
-2.68848
-2.66428
-2.73391
-2.68848
-2.61983
-2.59564
-2.66428
-2.61983
-2.55218
-2.52798
-2.59564
-2.55218
-2.48551
-2.46131
-2.52798
-2.48551
-2.41983
-2.39563
-2.46131
-2.41983
-2.35514
-2.33094
-2.39563
-2.35514
-2.29143
-2.26724
-2.33094
-2.29143
-2.22872
-2.20452
-2.26724
-2.22872
-2.16699
-2.14279
-2.20452
-2.16699
-2.10624
-2.08205
-2.14279
-2.10624
-2.04649
-2.02229
-2.08205
-2.04649
-1.98772
-1.96353
-2.02229
-1.98772
-1.92994
-1.90575
-1.96353
-1.92994
-1.87315
-1.84896
-1.90575
-1.87315
-1.81735
-1.79315
-1.84896
-1.81735
-1.76253
-1.73834
-1.79315
-1.76253
-1.70871
-1.68451
-1.73834
-1.70871
-1.65586
-1.63167
-1.68451
-1.65586
-1.60401
-1.57981
-1.63167
-1.60401
-1.55315
-1.52895
-1.57981
-1.55315
-1.50327
-1.47907
-1.52895
-1.50327
-1.45438
-1.43018
-1.47907
-1.45438
-1.40648
-1.38228
-1.43018
-1.40648
-1.35956
-1.33536
-1.38228
-1.35956
-1.31363
-1.28944
-1.33536
-1.31363
-1.26869
-1.2445
-1.28944
-1.26869
-1.22474
-1.20055
-1.2445
-1.22474
-1.18178
-1.15758
-1.20055
-1.18178
-1.1398
-1.1156
-1.15758
-1.1398
-1.09881
-1.07462
-1.1156
-1.09881
-1.05881
-1.03461
-1.07462
-1.05881
-1.0198
-0.995601
-1.03461
-1.0198
-0.981773
-0.957576
-0.995601
-0.981773
-0.944735
-0.920537
-0.957576
-0.944735
-0.908684
-0.884487
-0.920537
-0.908684
-0.873621
-0.849424
-0.884487
-0.873621
-0.839546
-0.815349
-0.849424
-0.839546
-0.806459
-0.782261
-0.815349
-0.806459
-0.774359
-0.750161
-0.782261
-0.774359
-0.743246
-0.719049
-0.750161
-0.743246
-0.713122
-0.688924
-0.719049
-0.713122
-0.683985
-0.659787
-0.688924
-0.683985
-0.655835
-0.631638
-0.659787
-0.655835
-0.628674
-0.604476
-0.631638
-0.628674
-0.6025
-0.578302
-0.604476
-0.6025
-0.577313
-0.553116
-0.578302
-0.577313
-0.553115
-0.528917
-0.553116
-0.553115
-0.529904
-0.505706
-0.528917
-0.529904
-0.50768
-0.483483
-0.505706
-0.50768
-0.486444
-0.462247
-0.483483
-0.486444
-0.466196
-0.441999
-0.462247
-0.466196
-0.446936
-0.422738
-0.441999
-0.446936
-0.428663
-0.404466
-0.422738
-0.428663
-0.411378
-0.38718
-0.404466
-0.411378
-0.395081
-0.370883
-0.38718
-0.395081
-0.379771
-0.355573
-0.370883
-0.379771
-0.365449
-0.341251
-0.355573
-0.365449
-0.352114
-0.327917
-0.341251
-0.352114
-0.339767
-0.31557
-0.327917
-0.339767
-0.328408
-0.30421
-0.31557
-0.328408
-0.318036
-0.293839
-0.30421
-0.318036
-0.308653
-0.284455
-0.293839
-0.308653
-0.300256
-0.276059
-0.284455
-0.300256
-0.292848
-0.26865
-0.276059
-0.292848
-0.286427
-0.262229
-0.26865
-0.286427
-0.280994
-0.256796
-0.262229
-0.280994
-0.276548
-0.25235
-0.256796
-0.276548
-0.27309
-0.248892
-0.25235
-0.27309
-0.27062
-0.246422
-0.248892
-0.27062
-0.269137
-0.244939
-0.246422
-0.269137
-0.268642
-0.244444
-0.244939
-0.268642
-0.269135
-0.244937
-0.244444
-0.269135
-0.270615
-0.246417
-0.244937
-0.270615
-0.273083
-0.248885
-0.246417
-0.273083
-0.276539
-0.252341
-0.248885
-0.276539
-0.280982
-0.256784
-0.252341
-0.280982
-0.286413
-0.262215
-0.256784
-0.286413
-0.292831
-0.268634
-0.262215
-0.292831
-0.300238
-0.27604
-0.268634
-0.300238
-0.308631
-0.284434
-0.27604
-0.308631
-0.318013
-0.293815
-0.284434
-0.318013
-0.328382
-0.304185
-0.293815
-0.328382
-0.339739
-0.315541
-0.304185
-0.339739
-0.352083
-0.327886
-0.315541
-0.352083
-0.365416
-0.341218
-0.327886
-0.365416
-0.379735
-0.355538
-0.341218
-0.379735
-0.395043
-0.370845
-0.355538
-0.395043
-0.411338
-0.387141
-0.370845
-0.411338
-0.428621
-0.404423
-0.387141
-0.428621
-0.446891
-0.422694
-0.404423
-0.446891
-0.466149
-0.441952
-0.422694
-0.466149
-0.486395
-0.462198
-0.441952
-0.486395
-0.507628
-0.483431
-0.462198
-0.507628
-0.52985
-0.505652
-0.483431
-0.52985
-0.553058
-0.528861
-0.505652
-0.553058
-0.577255
-0.553057
-0.528861
-0.577255
-0.602439
-0.578241
-0.553057
-0.602439
-0.62861
-0.604413
-0.578241
-0.62861
-0.65577
-0.631572
-0.604413
-0.65577
-0.683917
-0.659719
-0.631572
-0.683917
-0.713051
-0.688854
-0.659719
-5.68901
-5.5858
-5.56259
-5.6658
-5.5858
-5.48358
-5.46037
-5.56259
-5.48358
-5.38234
-5.35913
-5.46037
-5.38234
-5.28209
-5.25888
-5.35913
-5.28209
-5.18283
-5.15962
-5.25888
-5.18283
-5.08456
-5.06135
-5.15962
-5.08456
-4.98728
-4.96407
-5.06135
-4.98728
-4.89098
-4.86777
-4.96407
-4.89098
-4.79567
-4.77246
-4.86777
-4.79567
-4.70135
-4.67814
-4.77246
-4.70135
-4.60801
-4.5848
-4.67814
-4.60801
-4.51566
-4.49246
-4.5848
-4.51566
-4.42431
-4.4011
-4.49246
-4.42431
-4.33393
-4.31072
-4.4011
-4.33393
-4.24455
-4.22134
-4.31072
-4.24455
-4.15615
-4.13294
-4.22134
-4.15615
-4.06875
-4.04554
-4.13294
-4.06875
-3.98232
-3.95911
-4.04554
-3.98232
-3.89689
-3.87368
-3.95911
-3.89689
-3.81245
-3.78924
-3.87368
-3.81245
-3.72899
-3.70578
-3.78924
-3.72899
-3.64652
-3.62331
-3.70578
-3.64652
-3.56503
-3.54182
-3.62331
-3.56503
-3.48454
-3.46133
-3.54182
-3.48454
-3.40503
-3.38182
-3.46133
-3.40503
-3.32651
-3.3033
-3.38182
-3.32651
-3.24898
-3.22577
-3.3033
-3.24898
-3.17244
-3.14923
-3.22577
-3.17244
-3.09688
-3.07367
-3.14923
-3.09688
-3.02231
-2.9991
-3.07367
-3.02231
-2.94873
-2.92552
-2.9991
-2.94873
-2.87614
-2.85293
-2.92552
-2.87614
-2.80453
-2.78132
-2.85293
-2.80453
-2.73391
-2.7107
-2.78132
-2.73391
-2.66428
-2.64107
-2.7107
-2.66428
-2.59564
-2.57243
-2.64107
-2.59564
-2.52798
-2.50477
-2.57243
-2.52798
-2.46131
-2.4381
-2.50477
-2.46131
-2.39563
-2.37242
-2.4381
-2.39563
-2.33094
-2.30773
-2.37242
-2.33094
-2.26724
-2.24403
-2.30773
-2.26724
-2.20452
-2.18131
-2.24403
-2.20452
-2.14279
-2.11958
-2.18131
-2.14279
-2.08205
-2.05884
-2.11958
-2.08205
-2.02229
-1.99908
-2.05884
-2.02229
-1.96353
-1.94032
-1.99908
-1.96353
-1.90575
-1.88254
-1.94032
-1.90575
-1.84896
-1.82575
-1.88254
-1.84896
-1.79315
-1.76994
-1.82575
-1.79315
-1.73834
-1.71513
-1.76994
-1.73834
-1.68451
-1.6613
-1.71513
-1.68451
-1.63167
-1.60846
-1.6613
-1.63167
-1.57981
-1.5566
-1.60846
-1.57981
-1.52895
-1.50574
-1.5566
-1.52895
-1.47907
-1.45586
-1.50574
-1.47907
-1.43018
-1.40697
-1.45586
-1.43018
-1.38228
-1.35907
-1.40697
-1.38228
-1.33536
-1.31215
-1.35907
-1.33536
-1.28944
-1.26623
-1.31215
-1.28944
-1.2445
-1.22129
-1.26623
-1.2445
-1.20055
-1.17734
-1.22129
-1.20055
-1.15758
-1.13437
-1.17734
-1.15758
-1.1156
-1.0924
-1.13437
-1.1156
-1.07462
-1.05141
-1.0924
-1.07462
-1.03461
-1.01141
-1.05141
-1.03461
-0.995601
-0.972392
-1.01141
-0.995601
-0.957576
-0.934366
-0.972392
-0.957576
-0.920537
-0.897327
-0.934366
-0.920537
-0.884487
-0.861277
-0.897327
-0.884487
-0.849424
-0.826214
-0.861277
-0.849424
-0.815349
-0.792139
-0.826214
-0.815349
-0.782261
-0.759051
-0.792139
-0.782261
-0.750161
-0.726951
-0.759051
-0.750161
-0.719049
-0.695839
-0.726951
-0.719049
-0.688924
-0.665714
-0.695839
-0.688924
-0.659787
-0.636577
-0.665714
-0.659787
-0.631638
-0.608428
-0.636577
-0.631638
-0.604476
-0.581266
-0.608428
-0.604476
-0.578302
-0.555092
-0.581266
-0.578302
-0.553116
-0.529906
-0.555092
-0.553116
-0.528917
-0.505707
-0.529906
-0.528917
-0.505706
-0.482496
-0.505707
-0.505706
-0.483483
-0.460273
-0.482496
-0.483483
-0.462247
-0.439037
-0.460273
-0.462247
-0.441999
-0.418789
-0.439037
-0.441999
-0.422738
-0.399529
-0.418789
-0.422738
-0.404466
-0.381256
-0.399529
-0.404466
-0.38718
-0.363971
-0.381256
-0.38718
-0.370883
-0.347673
-0.363971
-0.370883
-0.355573
-0.332363
-0.347673
-0.355573
-0.341251
-0.318041
-0.332363
-0.341251
-0.327917
-0.304707
-0.318041
-0.327917
-0.31557
-0.29236
-0.304707
-0.31557
-0.30421
-0.281001
-0.29236
-0.30421
-0.293839
-0.270629
-0.281001
-0.293839
-0.284455
-0.261245
-0.270629
-0.284455
-0.276059
-0.252849
-0.261245
-0.276059
-0.26865
-0.24544
-0.252849
-0.26865
-0.262229
-0.239019
-0.24544
-0.262229
-0.256796
-0.233586
-0.239019
-0.256796
-0.25235
-0.229141
-0.233586
-0.25235
-0.248892
-0.225683
-0.229141
-0.248892
-0.246422
-0.223212
-0.225683
-0.246422
-0.244939
-0.22173
-0.223212
-0.244939
-0.244444
-0.221235
-0.22173
-0.244444
-0.244937
-0.221727
-0.221235
-0.244937
-0.246417
-0.223208
-0.221727
-0.246417
-0.248885
-0.225675
-0.223208
-0.248885
-0.252341
-0.229131
-0.225675
-0.252341
-0.256784
-0.233574
-0.229131
-0.256784
-0.262215
-0.239005
-0.233574
-0.262215
-0.268634
-0.245424
-0.239005
-0.268634
-0.27604
-0.25283
-0.245424
-0.27604
-0.284434
-0.261224
-0.25283
-0.284434
-0.293815
-0.270606
-0.261224
-0.293815
-0.304185
-0.280975
-0.270606
-0.304185
-0.315541
-0.292332
-0.280975
-0.315541
-0.327886
-0.304676
-0.292332
-0.327886
-0.341218
-0.318008
-0.304676
-0.341218
-0.355538
-0.332328
-0.318008
-0.355538
-0.370845
-0.347636
-0.332328
-0.370845
-0.387141
-0.363931
-0.347636
-0.387141
-0.404423
-0.381213
-0.363931
-0.404423
-0.422694
-0.399484
-0.381213
-0.422694
-0.441952
-0.418742
-0.399484
-0.441952
-0.462198
-0.438988