# vtk DataFile Version 1.0
unstructured Grid
ASCII
DATASET UNSTRUCTURED_GRID
POINTS 23440 float 
0 0	 0.0
0.0222222 0	 0.0
0.0222222 0.0222222	 0.0
0 0.0222222	 0.0
0.0222222 0	 0.0
0.0444444 0	 0.0
0.0444444 0.0222222	 0.0
0.0222222 0.0222222	 0.0
0.0444444 0	 0.0
0.0666667 0	 0.0
0.0666667 0.0222222	 0.0
0.0444444 0.0222222	 0.0
0.0666667 0	 0.0
0.0888889 0	 0.0
0.0888889 0.0222222	 0.0
0.0666667 0.0222222	 0.0
0.0888889 0	 0.0
0.111111 0	 0.0
0.111111 0.0222222	 0.0
0.0888889 0.0222222	 0.0
0.111111 0	 0.0
0.133333 0	 0.0
0.133333 0.0222222	 0.0
0.111111 0.0222222	 0.0
0.133333 0	 0.0
0.155556 0	 0.0
0.155556 0.0222222	 0.0
0.133333 0.0222222	 0.0
0.155556 0	 0.0
0.177778 0	 0.0
0.177778 0.0222222	 0.0
0.155556 0.0222222	 0.0
0.177778 0	 0.0
0.2 0	 0.0
0.2 0.0222222	 0.0
0.177778 0.0222222	 0.0
0.2 0	 0.0
0.222222 0	 0.0
0.222222 0.0222222	 0.0
0.2 0.0222222	 0.0
0.222222 0	 0.0
0.244444 0	 0.0
0.244444 0.0222222	 0.0
0.222222 0.0222222	 0.0
0.244444 0	 0.0
0.266667 0	 0.0
0.266667 0.0222222	 0.0
0.244444 0.0222222	 0.0
0.266667 0	 0.0
0.288889 0	 0.0
0.288889 0.0222222	 0.0
0.266667 0.0222222	 0.0
0.288889 0	 0.0
0.311111 0	 0.0
0.311111 0.0222222	 0.0
0.288889 0.0222222	 0.0
0.311111 0	 0.0
0.333333 0	 0.0
0.333333 0.0222222	 0.0
0.311111 0.0222222	 0.0
0.333333 0	 0.0
0.355556 0	 0.0
0.355556 0.0222222	 0.0
0.333333 0.0222222	 0.0
0.355556 0	 0.0
0.377778 0	 0.0
0.377778 0.0222222	 0.0
0.355556 0.0222222	 0.0
0.377778 0	 0.0
0.4 0	 0.0
0.4 0.0222222	 0.0
0.377778 0.0222222	 0.0
0.4 0	 0.0
0.422222 0	 0.0
0.422222 0.0222222	 0.0
0.4 0.0222222	 0.0
0.422222 0	 0.0
0.444444 0	 0.0
0.444444 0.0222222	 0.0
0.422222 0.0222222	 0.0
0.444444 0	 0.0
0.466667 0	 0.0
0.466667 0.0222222	 0.0
0.444444 0.0222222	 0.0
0.466667 0	 0.0
0.488889 0	 0.0
0.488889 0.0222222	 0.0
0.466667 0.0222222	 0.0
0.488889 0	 0.0
0.511111 0	 0.0
0.511111 0.0222222	 0.0
0.488889 0.0222222	 0.0
0.511111 0	 0.0
0.533333 0	 0.0
0.533333 0.0222222	 0.0
0.511111 0.0222222	 0.0
0.533333 0	 0.0
0.555556 0	 0.0
0.555556 0.0222222	 0.0
0.533333 0.0222222	 0.0
0.555556 0	 0.0
0.577778 0	 0.0
0.577778 0.0222222	 0.0
0.555556 0.0222222	 0.0
0.577778 0	 0.0
0.6 0	 0.0
0.6 0.0222222	 0.0
0.577778 0.0222222	 0.0
0.6 0	 0.0
0.622222 0	 0.0
0.622222 0.0222222	 0.0
0.6 0.0222222	 0.0
0.622222 0	 0.0
0.644444 0	 0.0
0.644444 0.0222222	 0.0
0.622222 0.0222222	 0.0
0.644444 0	 0.0
0.666667 0	 0.0
0.666667 0.0222222	 0.0
0.644444 0.0222222	 0.0
0.666667 0	 0.0
0.688889 0	 0.0
0.688889 0.0222222	 0.0
0.666667 0.0222222	 0.0
0.688889 0	 0.0
0.711111 0	 0.0
0.711111 0.0222222	 0.0
0.688889 0.0222222	 0.0
0.711111 0	 0.0
0.733333 0	 0.0
0.733333 0.0222222	 0.0
0.711111 0.0222222	 0.0
0.733333 0	 0.0
0.755556 0	 0.0
0.755556 0.0222222	 0.0
0.733333 0.0222222	 0.0
0.755556 0	 0.0
0.777778 0	 0.0
0.777778 0.0222222	 0.0
0.755556 0.0222222	 0.0
0.777778 0	 0.0
0.8 0	 0.0
0.8 0.0222222	 0.0
0.777778 0.0222222	 0.0
0.8 0	 0.0
0.822222 0	 0.0
0.822222 0.0222222	 0.0
0.8 0.0222222	 0.0
0.822222 0	 0.0
0.844444 0	 0.0
0.844444 0.0222222	 0.0
0.822222 0.0222222	 0.0
0.844444 0	 0.0
0.866667 0	 0.0
0.866667 0.0222222	 0.0
0.844444 0.0222222	 0.0
0.866667 0	 0.0
0.888889 0	 0.0
0.888889 0.0222222	 0.0
0.866667 0.0222222	 0.0
0.888889 0	 0.0
0.911111 0	 0.0
0.911111 0.0222222	 0.0
0.888889 0.0222222	 0.0
0.911111 0	 0.0
0.933333 0	 0.0
0.933333 0.0222222	 0.0
0.911111 0.0222222	 0.0
0.933333 0	 0.0
0.955556 0	 0.0
0.955556 0.0222222	 0.0
0.933333 0.0222222	 0.0
0.955556 0	 0.0
0.977778 0	 0.0
0.977778 0.0222222	 0.0
0.955556 0.0222222	 0.0
0.977778 0	 0.0
1 0	 0.0
1 0.0222222	 0.0
0.977778 0.0222222	 0.0
1 0	 0.0
1.02222 0	 0.0
1.02222 0.0222222	 0.0
1 0.0222222	 0.0
1.02222 0	 0.0
1.04444 0	 0.0
1.04444 0.0222222	 0.0
1.02222 0.0222222	 0.0
1.04444 0	 0.0
1.06667 0	 0.0
1.06667 0.0222222	 0.0
1.04444 0.0222222	 0.0
1.06667 0	 0.0
1.08889 0	 0.0
1.08889 0.0222222	 0.0
1.06667 0.0222222	 0.0
1.08889 0	 0.0
1.11111 0	 0.0
1.11111 0.0222222	 0.0
1.08889 0.0222222	 0.0
1.11111 0	 0.0
1.13333 0	 0.0
1.13333 0.0222222	 0.0
1.11111 0.0222222	 0.0
1.13333 0	 0.0
1.15556 0	 0.0
1.15556 0.0222222	 0.0
1.13333 0.0222222	 0.0
1.15556 0	 0.0
1.17778 0	 0.0
1.17778 0.0222222	 0.0
1.15556 0.0222222	 0.0
1.17778 0	 0.0
1.2 0	 0.0
1.2 0.0222222	 0.0
1.17778 0.0222222	 0.0
1.2 0	 0.0
1.22222 0	 0.0
1.22222 0.0222222	 0.0
1.2 0.0222222	 0.0
1.22222 0	 0.0
1.24444 0	 0.0
1.24444 0.0222222	 0.0
1.22222 0.0222222	 0.0
1.24444 0	 0.0
1.26667 0	 0.0
1.26667 0.0222222	 0.0
1.24444 0.0222222	 0.0
1.26667 0	 0.0
1.28889 0	 0.0
1.28889 0.0222222	 0.0
1.26667 0.0222222	 0.0
1.28889 0	 0.0
1.31111 0	 0.0
1.31111 0.0222222	 0.0
1.28889 0.0222222	 0.0
1.31111 0	 0.0
1.33333 0	 0.0
1.33333 0.0222222	 0.0
1.31111 0.0222222	 0.0
1.33333 0	 0.0
1.35556 0	 0.0
1.35556 0.0222222	 0.0
1.33333 0.0222222	 0.0
1.35556 0	 0.0
1.37778 0	 0.0
1.37778 0.0222222	 0.0
1.35556 0.0222222	 0.0
1.37778 0	 0.0
1.4 0	 0.0
1.4 0.0222222	 0.0
1.37778 0.0222222	 0.0
1.4 0	 0.0
1.42222 0	 0.0
1.42222 0.0222222	 0.0
1.4 0.0222222	 0.0
1.42222 0	 0.0
1.44444 0	 0.0
1.44444 0.0222222	 0.0
1.42222 0.0222222	 0.0
1.44444 0	 0.0
1.46667 0	 0.0
1.46667 0.0222222	 0.0
1.44444 0.0222222	 0.0
1.46667 0	 0.0
1.48889 0	 0.0
1.48889 0.0222222	 0.0
1.46667 0.0222222	 0.0
1.48889 0	 0.0
1.51111 0	 0.0
1.51111 0.0222222	 0.0
1.48889 0.0222222	 0.0
1.51111 0	 0.0
1.53333 0	 0.0
1.53333 0.0222222	 0.0
1.51111 0.0222222	 0.0
1.53333 0	 0.0
1.55556 0	 0.0
1.55556 0.0222222	 0.0
1.53333 0.0222222	 0.0
1.55556 0	 0.0
1.57778 0	 0.0
1.57778 0.0222222	 0.0
1.55556 0.0222222	 0.0
1.57778 0	 0.0
1.6 0	 0.0
1.6 0.0222222	 0.0
1.57778 0.0222222	 0.0
1.6 0	 0.0
1.62222 0	 0.0
1.62222 0.0222222	 0.0
1.6 0.0222222	 0.0
1.62222 0	 0.0
1.64444 0	 0.0
1.64444 0.0222222	 0.0
1.62222 0.0222222	 0.0
1.64444 0	 0.0
1.66667 0	 0.0
1.66667 0.0222222	 0.0
1.64444 0.0222222	 0.0
1.66667 0	 0.0
1.68889 0	 0.0
1.68889 0.0222222	 0.0
1.66667 0.0222222	 0.0
1.68889 0	 0.0
1.71111 0	 0.0
1.71111 0.0222222	 0.0
1.68889 0.0222222	 0.0
1.71111 0	 0.0
1.73333 0	 0.0
1.73333 0.0222222	 0.0
1.71111 0.0222222	 0.0
1.73333 0	 0.0
1.75556 0	 0.0
1.75556 0.0222222	 0.0
1.73333 0.0222222	 0.0
1.75556 0	 0.0
1.77778 0	 0.0
1.77778 0.0222222	 0.0
1.75556 0.0222222	 0.0
1.77778 0	 0.0
1.8 0	 0.0
1.8 0.0222222	 0.0
1.77778 0.0222222	 0.0
1.8 0	 0.0
1.82222 0	 0.0
1.82222 0.0222222	 0.0
1.8 0.0222222	 0.0
1.82222 0	 0.0
1.84444 0	 0.0
1.84444 0.0222222	 0.0
1.82222 0.0222222	 0.0
1.84444 0	 0.0
1.86667 0	 0.0
1.86667 0.0222222	 0.0
1.84444 0.0222222	 0.0
1.86667 0	 0.0
1.88889 0	 0.0
1.88889 0.0222222	 0.0
1.86667 0.0222222	 0.0
1.88889 0	 0.0
1.91111 0	 0.0
1.91111 0.0222222	 0.0
1.88889 0.0222222	 0.0
1.91111 0	 0.0
1.93333 0	 0.0
1.93333 0.0222222	 0.0
1.91111 0.0222222	 0.0
1.93333 0	 0.0
1.95556 0	 0.0
1.95556 0.0222222	 0.0
1.93333 0.0222222	 0.0
1.95556 0	 0.0
1.97778 0	 0.0
1.97778 0.0222222	 0.0
1.95556 0.0222222	 0.0
1.97778 0	 0.0
2 0	 0.0
2 0.0222222	 0.0
1.97778 0.0222222	 0.0
2 0	 0.0
2.02222 0	 0.0
2.02222 0.0222222	 0.0
2 0.0222222	 0.0
2.02222 0	 0.0
2.04444 0	 0.0
2.04444 0.0222222	 0.0
2.02222 0.0222222	 0.0
2.04444 0	 0.0
2.06667 0	 0.0
2.06667 0.0222222	 0.0
2.04444 0.0222222	 0.0
2.06667 0	 0.0
2.08889 0	 0.0
2.08889 0.0222222	 0.0
2.06667 0.0222222	 0.0
2.08889 0	 0.0
2.11111 0	 0.0
2.11111 0.0222222	 0.0
2.08889 0.0222222	 0.0
2.11111 0	 0.0
2.13333 0	 0.0
2.13333 0.0222222	 0.0
2.11111 0.0222222	 0.0
2.13333 0	 0.0
2.15556 0	 0.0
2.15556 0.0222222	 0.0
2.13333 0.0222222	 0.0
2.15556 0	 0.0
2.17778 0	 0.0
2.17778 0.0222222	 0.0
2.15556 0.0222222	 0.0
2.17778 0	 0.0
2.2 0	 0.0
2.2 0.0222222	 0.0
2.17778 0.0222222	 0.0
2.2 0	 0.0
2.22222 0	 0.0
2.22222 0.0222222	 0.0
2.2 0.0222222	 0.0
2.22222 0	 0.0
2.24444 0	 0.0
2.24444 0.0222222	 0.0
2.22222 0.0222222	 0.0
2.24444 0	 0.0
2.26667 0	 0.0
2.26667 0.0222222	 0.0
2.24444 0.0222222	 0.0
2.26667 0	 0.0
2.28889 0	 0.0
2.28889 0.0222222	 0.0
2.26667 0.0222222	 0.0
2.28889 0	 0.0
2.31111 0	 0.0
2.31111 0.0222222	 0.0
2.28889 0.0222222	 0.0
2.31111 0	 0.0
2.33333 0	 0.0
2.33333 0.0222222	 0.0
2.31111 0.0222222	 0.0
2.33333 0	 0.0
2.35556 0	 0.0
2.35556 0.0222222	 0.0
2.33333 0.0222222	 0.0
2.35556 0	 0.0
2.37778 0	 0.0
2.37778 0.0222222	 0.0
2.35556 0.0222222	 0.0
2.37778 0	 0.0
2.4 0	 0.0
2.4 0.0222222	 0.0
2.37778 0.0222222	 0.0
2.4 0	 0.0
2.42222 0	 0.0
2.42222 0.0222222	 0.0
2.4 0.0222222	 0.0
2.42222 0	 0.0
2.44444 0	 0.0
2.44444 0.0222222	 0.0
2.42222 0.0222222	 0.0
2.44444 0	 0.0
2.46667 0	 0.0
2.46667 0.0222222	 0.0
2.44444 0.0222222	 0.0
2.46667 0	 0.0
2.48889 0	 0.0
2.48889 0.0222222	 0.0
2.46667 0.0222222	 0.0
2.48889 0	 0.0
2.51111 0	 0.0
2.51111 0.0222222	 0.0
2.48889 0.0222222	 0.0
2.51111 0	 0.0
2.53333 0	 0.0
2.53333 0.0222222	 0.0
2.51111 0.0222222	 0.0
2.53333 0	 0.0
2.55556 0	 0.0
2.55556 0.0222222	 0.0
2.53333 0.0222222	 0.0
2.55556 0	 0.0
2.57778 0	 0.0
2.57778 0.0222222	 0.0
2.55556 0.0222222	 0.0
2.57778 0	 0.0
2.6 0	 0.0
2.6 0.0222222	 0.0
2.57778 0.0222222	 0.0
2.6 0	 0.0
2.62222 0	 0.0
2.62222 0.0222222	 0.0
2.6 0.0222222	 0.0
2.62222 0	 0.0
2.64444 0	 0.0
2.64444 0.0222222	 0.0
2.62222 0.0222222	 0.0
2.64444 0	 0.0
2.66667 0	 0.0
2.66667 0.0222222	 0.0
2.64444 0.0222222	 0.0
2.66667 0	 0.0
2.68889 0	 0.0
2.68889 0.0222222	 0.0
2.66667 0.0222222	 0.0
2.68889 0	 0.0
2.71111 0	 0.0
2.71111 0.0222222	 0.0
2.68889 0.0222222	 0.0
2.71111 0	 0.0
2.73333 0	 0.0
2.73333 0.0222222	 0.0
2.71111 0.0222222	 0.0
2.73333 0	 0.0
2.75556 0	 0.0
2.75556 0.0222222	 0.0
2.73333 0.0222222	 0.0
2.75556 0	 0.0
2.77778 0	 0.0
2.77778 0.0222222	 0.0
2.75556 0.0222222	 0.0
2.77778 0	 0.0
2.8 0	 0.0
2.8 0.0222222	 0.0
2.77778 0.0222222	 0.0
2.8 0	 0.0
2.82222 0	 0.0
2.82222 0.0222222	 0.0
2.8 0.0222222	 0.0
2.82222 0	 0.0
2.84444 0	 0.0
2.84444 0.0222222	 0.0
2.82222 0.0222222	 0.0
2.84444 0	 0.0
2.86667 0	 0.0
2.86667 0.0222222	 0.0
2.84444 0.0222222	 0.0
2.86667 0	 0.0
2.88889 0	 0.0
2.88889 0.0222222	 0.0
2.86667 0.0222222	 0.0
2.88889 0	 0.0
2.91111 0	 0.0
2.91111 0.0222222	 0.0
2.88889 0.0222222	 0.0
2.91111 0	 0.0
[...]
POINT_DATA 23440
SCALARS levelset_first float
LOOKUP_TABLE default
-5.72832
-5.62545
-5.59928
-5.70214
-5.62545
-5.52357
-5.4974
-5.59928
-5.52357
-5.42268
-5.39651
-5.4974
-5.42268
-5.32278
-5.29661
-5.39651
-5.32278
-5.22387
-5.19769
-5.29661
-5.22387
-5.12594
-5.09977
-5.19769
-5.12594
-5.029
-5.00283
-5.09977
-5.029
-4.93305
-4.90688
-5.00283
-4.93305
-4.83808
-4.81191
-4.90688
-4.83808
-4.74411
-4.71794
-4.81191
-4.74411
-4.65112
-4.62495
-4.71794
-4.65112
-4.55912
-4.53295
-4.62495
-4.55912
-4.46811
-4.44193
-4.53295
-4.46811
-4.37808
-4.35191
-4.44193
-4.37808
-4.28904
-4.26287
-4.35191
-4.28904
-4.20099
-4.17482
-4.26287
-4.20099
-4.11393
-4.08776
-4.17482
-4.11393
-4.02785
-4.00168
-4.08776
-4.02785
-3.94277
-3.91659
-4.00168
-3.94277
-3.85867
-3.83249
-3.91659
-3.85867
-3.77555
-3.74938
-3.83249
-3.77555
-3.69343
-3.66726
-3.74938
-3.69343
-3.61229
-3.58612
-3.66726
-3.61229
-3.53214
-3.50597
-3.58612
-3.53214
-3.45298
-3.42681
-3.50597
-3.45298
-3.37481
-3.34864
-3.42681
-3.37481
-3.29762
-3.27145
-3.34864
-3.29762
-3.22142
-3.19525
-3.27145
-3.22142
-3.14621
-3.12004
-3.19525
-3.14621
-3.07199
-3.04582
-3.12004
-3.07199
-2.99875
-2.97258
-3.04582
-2.99875
-2.92651
-2.90033
-2.97258
-2.92651
-2.85525
-2.82907
-2.90033
-2.85525
-2.78497
-2.7588
-2.82907
-2.78497
-2.71569
-2.68951
-2.7588
-2.71569
-2.64739
-2.62122
-2.68951
-2.64739
-2.58008
-2.55391
-2.62122
-2.58008
-2.51376
-2.48759
-2.55391
-2.51376
-2.44842
-2.42225
-2.48759
-2.44842
-2.38408
-2.3579
-2.42225
-2.38408
-2.32072
-2.29455
-2.3579
-2.32072
-2.25835
-2.23217
-2.29455
-2.25835
-2.19696
-2.17079
-2.23217
-2.19696
-2.13657
-2.11039
-2.17079
-2.13657
-2.07716
-2.05099
-2.11039
-2.07716
-2.01874
-1.99257
-2.05099
-2.01874
-1.9613
-1.93513
-1.99257
-1.9613
-1.90486
-1.87869
-1.93513
-1.90486
-1.8494
-1.82323
-1.87869
-1.8494
-1.79493
-1.76876
-1.82323
-1.79493
-1.74145
-1.71528
-1.76876
-1.74145
-1.68895
-1.66278
-1.71528
-1.68895
-1.63745
-1.61127
-1.66278
-1.63745
-1.58693
-1.56075
-1.61127
-1.58693
-1.5374
-1.51122
-1.56075
-1.5374
-1.48885
-1.46268
-1.51122
-1.48885
-1.44129
-1.41512
-1.46268
-1.44129
-1.39473
-1.36855
-1.41512
-1.39473
-1.34914
-1.32297
-1.36855
-1.34914
-1.30455
-1.27838
-1.32297
-1.30455
-1.26094
-1.23477
-1.27838
-1.26094
-1.21833
-1.19215
-1.23477
-1.21833
-1.1767
-1.15052
-1.19215
-1.1767
-1.13605
-1.10988
-1.15052
-1.13605
-1.0964
-1.07022
-1.10988
-1.0964
-1.05773
-1.03156
-1.07022
-1.05773
-1.02005
-0.993877
-1.03156
-1.02005
-0.983357
-0.957185
-0.993877
-0.983357
-0.947653
-0.92148
-0.957185
-0.947653
-0.912936
-0.886763
-0.92148
-0.912936
-0.879206
-0.853033
-0.886763
-0.879206
-0.846464
-0.820292
-0.853033
-0.846464
-0.81471
-0.788537
-0.820292
-0.81471
-0.783944
-0.757771
-0.788537
-0.783944
-0.754165
-0.727992
-0.757771
-0.754165
-0.725374
-0.699201
-0.727992
-0.725374
-0.69757
-0.671398
-0.699201
-0.69757
-0.670755
-0.644582
-0.671398
-0.670755
-0.644926
-0.618754
-0.644582
-0.644926
-0.620086
-0.593913
-0.618754
-0.620086
-0.596233
-0.57006
-0.593913
-0.596233
-0.573368
-0.547195
-0.57006
-0.573368
-0.55149
-0.525317
-0.547195
-0.55149
-0.5306
-0.504427
-0.525317
-0.5306
-0.510698
-0.484525
-0.504427
-0.510698
-0.491783
-0.465611
-0.484525
-0.491783
-0.473856
-0.447684
-0.465611
-0.473856
-0.456917
-0.430744
-0.447684
-0.456917
-0.440965
-0.414793
-0.430744
-0.440965
-0.426001
-0.399829
-0.414793
-0.426001
-0.412025
-0.385852
-0.399829
-0.412025
-0.399036
-0.372864
-0.385852
-0.399036
-0.387035
-0.360863
-0.372864
-0.387035
-0.376022
-0.349849
-0.360863
-0.376022
-0.365996
-0.339824
-0.349849
-0.365996
-0.356958
-0.330785
-0.339824
-0.356958
-0.348908
-0.322735
-0.330785
-0.348908
-0.341845
-0.315672
-0.322735
-0.341845
-0.33577
-0.309597
-0.315672
-0.33577
-0.330683
-0.30451
-0.309597
-0.330683
-0.326583
-0.30041
-0.30451
-0.326583
-0.323471
-0.297298
-0.30041
-0.323471
-0.321346
-0.295173
-0.297298
-0.321346
-0.320209
-0.294036
-0.295173
-0.320209
-0.32006
-0.293887
-0.294036
-0.32006
-0.320899
-0.294726
-0.293887
-0.320899
-0.322725
-0.296552
-0.294726
-0.322725
-0.325539
-0.299366
-0.296552
-0.325539
-0.32934
-0.303167
-0.299366
-0.32934
-0.334129
-0.307956
-0.303167
-0.334129
-0.339906
-0.313733
-0.307956
-0.339906
-0.34667
-0.320497
-0.313733
-0.34667
-0.354422
-0.328249
-0.320497
-0.354422
-0.363162
-0.336989
-0.328249
-0.363162
-0.372889
-0.346717
-0.336989
-0.372889
-0.383604
-0.357432
-0.346717
-0.383604
-0.395307
-0.369134
-0.357432
-0.395307
-0.407997
-0.381825
-0.369134
-0.407997
-0.421675
-0.395503
-0.381825
-0.421675
-0.436341
-0.410168
-0.395503
-0.436341
-0.451994
-0.425821
-0.410168
-0.451994
-0.468635
-0.442462
-0.425821
-0.468635
-0.486264
-0.460091
-0.442462
-0.486264
-0.50488
-0.478707
-0.460091
-0.50488
-0.524484
-0.498311
-0.478707
-0.524484
-0.545076
-0.518903
-0.498311
-0.545076
-0.566655
-0.540482
-0.518903
-0.566655
-0.589222
-0.563049
-0.540482
-0.589222
-0.612776
-0.586603
-0.563049
-0.612776
-0.637318
-0.611146
-0.586603
-0.637318
-0.662848
-0.636675
-0.611146
-0.662848
-0.689366
-0.663193
-0.636675
-0.689366
-0.716871
-0.690698
-0.663193
-0.716871
-0.745364
-0.719191
-0.690698
-0.745364
-0.774844
-0.748671
-0.719191
-5.70214
-5.59928
-5.57409
-5.67696
-5.59928
-5.4974
-5.47222
-5.57409
-5.4974
-5.39651
-5.37133
-5.47222
-5.39651
-5.29661
-5.27142
-5.37133
-5.29661
-5.19769
-5.17251
-5.27142
-5.19769
-5.09977
-5.07458
-5.17251
-5.09977
-5.00283
-4.97764
-5.07458
-5.00283
-4.90688
-4.88169
-4.97764
-4.90688
-4.81191
-4.78673
-4.88169
-4.81191
-4.71794
-4.69275
-4.78673
-4.71794
-4.62495
-4.59976
-4.69275
-4.62495
-4.53295
-4.50776
-4.59976
-4.53295
-4.44193
-4.41675
-4.50776
-4.44193
-4.35191
-4.32672
-4.41675
-4.35191
-4.26287
-4.23768
-4.32672
-4.26287
-4.17482
-4.14963
-4.23768
-4.17482
-4.08776
-4.06257
-4.14963
-4.08776
-4.00168
-3.9765
-4.06257
-4.00168
-3.91659
-3.89141
-3.9765
-3.91659
-3.83249
-3.80731
-3.89141
-3.83249
-3.74938
-3.7242
-3.80731
-3.74938
-3.66726
-3.64207
-3.7242
-3.66726
-3.58612
-3.56093
-3.64207
-3.58612
-3.50597
-3.48079
-3.56093
-3.50597
-3.42681
-3.40162
-3.48079
-3.42681
-3.34864
-3.32345
-3.40162
-3.34864
-3.27145
-3.24626
-3.32345
-3.27145
-3.19525
-3.17007
-3.24626
-3.19525
-3.12004
-3.09485
-3.17007
-3.12004
-3.04582
-3.02063
-3.09485
-3.04582
-2.97258
-2.9474
-3.02063
-2.97258
-2.90033
-2.87515
-2.9474
-2.90033
-2.82907
-2.80389
-2.87515
-2.82907
-2.7588
-2.73361
-2.80389
-2.7588
-2.68951
-2.66433
-2.73361
-2.68951
-2.62122
-2.59603
-2.66433
-2.62122
-2.55391
-2.52872
-2.59603
-2.55391
-2.48759
-2.4624
-2.52872
-2.48759
-2.42225
-2.39707
-2.4624
-2.42225
-2.3579
-2.33272
-2.39707
-2.3579
-2.29455
-2.26936
-2.33272
-2.29455
-2.23217
-2.20699
-2.26936
-2.23217
-2.17079
-2.14561
-2.20699
-2.17079
-2.11039
-2.08521
-2.14561
-2.11039
-2.05099
-2.0258
-2.08521
-2.05099
-1.99257
-1.96738
-2.0258
-1.99257
-1.93513
-1.90995
-1.96738
-1.93513
-1.87869
-1.8535
-1.90995
-1.87869
-1.82323
-1.79804
-1.8535
-1.82323
-1.76876
-1.74357
-1.79804
-1.76876
-1.71528
-1.69009
-1.74357
-1.71528
-1.66278
-1.6376
-1.69009
-1.66278
-1.61127
-1.58609
-1.6376
-1.61127
-1.56075
-1.53557
-1.58609
-1.56075
-1.51122
-1.48604
-1.53557
-1.51122
-1.46268
-1.43749
-1.48604
-1.46268
-1.41512
-1.38994
-1.43749
-1.41512
-1.36855
-1.34337
-1.38994
-1.36855
-1.32297
-1.29779
-1.34337
-1.32297
-1.27838
-1.25319
-1.29779
-1.27838
-1.23477
-1.20959
-1.25319
-1.23477
-1.19215
-1.16697
-1.20959
-1.19215
-1.15052
-1.12534
-1.16697
-1.15052
-1.10988
-1.08469
-1.12534
-1.10988
-1.07022
-1.04504
-1.08469
-1.07022
-1.03156
-1.00637
-1.04504
-1.03156
-0.993877
-0.968692
-1.00637
-0.993877
-0.957185
-0.931999
-0.968692
-0.957185
-0.92148
-0.896295
-0.931999
-0.92148
-0.886763
-0.861578
-0.896295
-0.886763
-0.853033
-0.827848
-0.861578
-0.853033
-0.820292
-0.795106
-0.827848
-0.820292
-0.788537
-0.763352
-0.795106
-0.788537
-0.757771
-0.732586
-0.763352
-0.757771
-0.727992
-0.702807
-0.732586
-0.727992
-0.699201
-0.674016
-0.702807
-0.699201
-0.671398
-0.646212
-0.674016
-0.671398
-0.644582
-0.619397
-0.646212
-0.644582
-0.618754
-0.593568
-0.619397
-0.618754
-0.593913
-0.568728
-0.593568
-0.593913
-0.57006
-0.544875
-0.568728
-0.57006
-0.547195
-0.52201
-0.544875
-0.547195
-0.525317
-0.500132
-0.52201
-0.525317
-0.504427
-0.479242
-0.500132
-0.504427
-0.484525
-0.45934
-0.479242
-0.484525
-0.465611
-0.440425
-0.45934
-0.465611
-0.447684
-0.422498
-0.440425
-0.447684
-0.430744
-0.405559
-0.422498
-0.430744
-0.414793
-0.389607
-0.405559
-0.414793
-0.399829
-0.374643
-0.389607
-0.399829
-0.385852
-0.360667
-0.374643
-0.385852
-0.372864
-0.347678
-0.360667
-0.372864
-0.360863
-0.335677
-0.347678
-0.360863
-0.349849
-0.324664
-0.335677
-0.349849
-0.339824
-0.314638
-0.324664
-0.339824
-0.330785
-0.3056
-0.314638
-0.330785
-0.322735
-0.29755
-0.3056
-0.322735
-0.315672
-0.290487
-0.29755
-0.315672
-0.309597
-0.284412
-0.290487
-0.309597
-0.30451
-0.279325
-0.284412
-0.30451
-0.30041
-0.275225
-0.279325
-0.30041
-0.297298
-0.272113
-0.275225
-0.297298
-0.295173
-0.269988
-0.272113
-0.295173
-0.294036
-0.268851
-0.269988
-0.294036
-0.293887
-0.268702
-0.268851
-0.293887
-0.294726
-0.269541
-0.268702
-0.294726
-0.296552
-0.271367
-0.269541
-0.296552
-0.299366
-0.274181
-0.271367
-0.299366
-0.303167
-0.277982
-0.274181
-0.303167
-0.307956
-0.282771
-0.277982
-0.307956
-0.313733
-0.288548
-0.282771
-0.313733
-0.320497
-0.295312
-0.288548
-0.320497
-0.328249
-0.303064
-0.295312
-0.328249
-0.336989
-0.311804
-0.303064
-0.336989
-0.346717
-0.321531
-0.311804
-0.346717
-0.357432
-0.332246
-0.321531
-0.357432
-0.369134
-0.343949
-0.332246
-0.369134
-0.381825
-0.356639
-0.343949
-0.381825
-0.395503
-0.370317
-0.356639
-0.395503
-0.410168
-0.384983
-0.370317
-0.410168
-0.425821
-0.400636
-0.384983
-0.425821
-0.442462
-0.417277
-0.400636
-0.442462
-0.460091
-0.434906
-0.417277
-0.460091
-0.478707
-0.453522
-0.434906
-0.478707
-0.498311
-0.473126
-0.453522
-0.498311
-0.518903
-0.493718
-0.473126
-0.518903
-0.540482
-0.515297
-0.493718
-0.540482
-0.563049
-0.537864
-0.515297
-0.563049
-0.586603
-0.561418
-0.537864
-0.586603
-0.611146
-0.58596
-0.561418
-0.611146
-0.636675
-0.61149
-0.58596
-0.636675
-0.663193
-0.638008
-0.61149
-0.663193
-0.690698
-0.665513
-0.638008
-0.690698
-0.719191
-0.694006
-0.665513
-0.719191
-0.748671
-0.723486
-0.694006
-5.67696
-5.57409
-5.5499
-5.65276
-5.57409
-5.47222
-5.44802
-5.5499
-5.47222
-5.37133
-5.34713
-5.44802
-5.37133
-5.27142
-5.24723
-5.34713
-5.27142
-5.17251
-5.14831
-5.24723
-5.17251
-5.07458
-5.05038
-5.14831
-5.07458
-4.97764
-4.95344
-5.05038
-4.97764
-4.88169
-4.85749
-4.95344
-4.88169
-4.78673
-4.76253
-4.85749
-4.78673
-4.69275
-4.66855
-4.76253
-4.69275
-4.59976
-4.57556
-4.66855
-4.59976
-4.50776
-4.48356
-4.57556
-4.50776
-4.41675
-4.39255
-4.48356
-4.41675
-4.32672
-4.30252
-4.39255
-4.32672
-4.23768
-4.21349
-4.30252
-4.23768
-4.14963
-4.12544
-4.21349
-4.14963
-4.06257
-4.03837
-4.12544
-4.06257
-3.9765
-3.9523
-4.03837
-3.9765
-3.89141
-3.86721
-3.9523
-3.89141
-3.80731
-3.78311
-3.86721
-3.80731
-3.7242
-3.7
-3.78311
-3.7242
-3.64207
-3.61787
-3.7
-3.64207
-3.56093
-3.53674
-3.61787
-3.56093
-3.48079
-3.45659
-3.53674
-3.48079
-3.40162
-3.37743
-3.45659
-3.40162
-3.32345
-3.29925
-3.37743
-3.32345
-3.24626
-3.22207
-3.29925
-3.24626
-3.17007
-3.14587
-3.22207
-3.17007
-3.09485
-3.07066
-3.14587
-3.09485
-3.02063
-2.99643
-3.07066
-3.02063
-2.9474
-2.9232
-2.99643
-2.9474
-2.87515
-2.85095
-2.9232
-2.87515
-2.80389
-2.77969
-2.85095
-2.80389
-2.73361
-2.70942
-2.77969
-2.73361
-2.66433
-2.64013
-2.70942
-2.66433
-2.59603
-2.57183
-2.64013
-2.59603
-2.52872
-2.50453
-2.57183
-2.52872
-2.4624
-2.4382
-2.50453
-2.4624
-2.39707
-2.37287
-2.4382
-2.39707
-2.33272
-2.30852
-2.37287
-2.33272
-2.26936
-2.24516
-2.30852
-2.26936
-2.20699
-2.18279
-2.24516
-2.20699
-2.14561
-2.12141
-2.18279
-2.14561
-2.08521
-2.06101
-2.12141
-2.08521
-2.0258
-2.0016
-2.06101
-2.0258
-1.96738
-1.94318
-2.0016
-1.96738
-1.90995
-1.88575
-1.94318
-1.90995
-1.8535
-1.8293
-1.88575
-1.8535
-1.79804
-1.77385
-1.8293
-1.79804
-1.74357
-1.71938
-1.77385
-1.74357
-1.69009
-1.66589
-1.71938
-1.69009
-1.6376
-1.6134
-1.66589
-1.6376
-1.58609
-1.56189
-1.6134
-1.58609
-1.53557
-1.51137
-1.56189
-1.53557
-1.48604
-1.46184
-1.51137
-1.48604
-1.43749
-1.4133
-1.46184
-1.43749
-1.38994
-1.36574
-1.4133
-1.38994
-1.34337
-1.31917
-1.36574
-1.34337
-1.29779
-1.27359
-1.31917
-1.29779
-1.25319
-1.229
-1.27359
-1.25319
-1.20959
-1.18539
-1.229
-1.20959
-1.16697
-1.14277
-1.18539
-1.16697
-1.12534
-1.10114
-1.14277
-1.12534
-1.08469
-1.0605
-1.10114
-1.08469
-1.04504
-1.02084
-1.0605
-1.04504
-1.00637
-0.982174
-1.02084
-1.00637
-0.968692
-0.944494
-0.982174
-0.968692
-0.931999
-0.907802
-0.944494
-0.931999
-0.896295
-0.872097
-0.907802
-0.896295
-0.861578
-0.83738
-0.872097
-0.861578
-0.827848
-0.803651
-0.83738
-0.827848
-0.795106
-0.770909
-0.803651
-0.795106
-0.763352
-0.739155
-0.770909
-0.763352
-0.732586
-0.708388
-0.739155
-0.732586
-0.702807
-0.678609
-0.708388
-0.702807
-0.674016
-0.649818
-0.678609
-0.674016
-0.646212
-0.622015
-0.649818
-0.646212
-0.619397
-0.595199
-0.622015
-0.619397
-0.593568
-0.569371
-0.595199
-0.593568
-0.568728
-0.54453
-0.569371
-0.568728
-0.544875
-0.520677
-0.54453
-0.544875
-0.52201
-0.497812
-0.520677
-0.52201
-0.500132
-0.475935
-0.497812
-0.500132
-0.479242
-0.455045
-0.475935
-0.479242
-0.45934
-0.435142
-0.455045
-0.45934
-0.440425
-0.416228
-0.435142
-0.440425
-0.422498
-0.398301
-0.416228
-0.422498
-0.405559
-0.381362
-0.398301
-0.405559
-0.389607
-0.36541
-0.381362
-0.389607
-0.374643
-0.350446
-0.36541
-0.374643
-0.360667
-0.33647
-0.350446
-0.360667
-0.347678
-0.323481
-0.33647
-0.347678
-0.335677
-0.31148
-0.323481
-0.335677
-0.324664
-0.300467
-0.31148
-0.324664
-0.314638
-0.290441
-0.300467
-0.314638
-0.3056
-0.281403
-0.290441
-0.3056
-0.29755
-0.273352
-0.281403
-0.29755
-0.290487
-0.26629
-0.273352
-0.290487
-0.284412
-0.260214
-0.26629
-0.284412
-0.279325
-0.255127
-0.260214
-0.279325
-0.275225
-0.251027
-0.255127
-0.275225
-0.272113
-0.247915
-0.251027
-0.272113
-0.269988
-0.245791
-0.247915
-0.269988
-0.268851
-0.244654
-0.245791
-0.268851
-0.268702
-0.244505
-0.244654
-0.268702
-0.269541
-0.245343
-0.244505
-0.269541
-0.271367
-0.247169
-0.245343
-0.271367
-0.274181
-0.249983
-0.247169
-0.274181
-0.277982
-0.253784
-0.249983
-0.277982
-0.282771
-0.258574
-0.253784
-0.282771
-0.288548
-0.26435
-0.258574
-0.288548
-0.295312
-0.271115
-0.26435
-0.295312
-0.303064
-0.278867
-0.271115
-0.303064
-0.311804
-0.287606
-0.278867
-0.311804
-0.321531
-0.297334
-0.287606
-0.321531
-0.332246
-0.308049
-0.297334
-0.332246
-0.343949
-0.319752
-0.308049
-0.343949
-0.356639
-0.332442
-0.319752
-0.356639
-0.370317
-0.34612
-0.332442
-0.370317
-0.384983
-0.360785
-0.34612
-0.384983
-0.400636
-0.376439
-0.360785
-0.400636
-0.417277
-0.39308
-0.376439
-0.417277
-0.434906
-0.410708
-0.39308
-0.434906
-0.453522
-0.429325
-0.410708
-0.453522
-0.473126
-0.448928
-0.429325
-0.473126
-0.493718
-0.46952
-0.448928
-0.493718
-0.515297
-0.491099
-0.46952
-0.515297
-0.537864
-0.513666
-0.491099
-0.537864
-0.561418
-0.537221
-0.513666
-0.561418
-0.58596
-0.561763
-0.537221
-0.58596
-0.61149
-0.587293
-0.561763
-0.61149
-0.638008
-0.61381
-0.587293
-0.638008
-0.665513
-0.641315
-0.61381
-0.665513
-0.694006
-0.669808
-0.641315
-0.694006
-0.723486
-0.699289
-0.669808
-5.65276
-5.5499
-5.52669
-5.62955
-5.5499
-5.44802
-5.42481
-5.52669
-5.44802
-5.34713
-5.32392
-5.42481
-5.34713
-5.24723
-5.22402
-5.32392
-5.24723
-5.14831
-5.1251
-5.22402
-5.14831
-5.05038
-5.02717
-5.1251
-5.05038
-4.95344
-4.93023
-5.02717
-4.95344
-4.85749
-4.83428
-4.93023
-4.85749
-4.76253
-4.73932
-4.83428
-4.76253
-4.66855
-4.64534
-4.73932
-4.66855
-4.57556
-4.55235
-4.64534
-4.57556
-4.48356
-4.46035
-4.55235
-4.48356
-4.39255
-4.36934
-4.46035
-4.39255
-4.30252
-4.27931
-4.36934
-4.30252
-4.21349
-4.19028
-4.27931
-4.21349
-4.12544
-4.10223
-4.19028
-4.12544
-4.03837
-4.01516
-4.10223
-4.03837
-3.9523
-3.92909
-4.01516
-3.9523
-3.86721
-3.844
-3.92909
-3.86721
-3.78311
-3.7599
-3.844
-3.78311
-3.7
-3.67679
-3.7599
-3.7
-3.61787
-3.59466
-3.67679
-3.61787
-3.53674
-3.51353
-3.59466
-3.53674
-3.45659
-3.43338
-3.51353
-3.45659
-3.37743
-3.35422
-3.43338
-3.37743
-3.29925
-3.27604
-3.35422
-3.29925
-3.22207
-3.19886
-3.27604
-3.22207
-3.14587
-3.12266
-3.19886
-3.14587
-3.07066
-3.04745
-3.12266
-3.07066
-2.99643
-2.97322
-3.04745
-2.99643
-2.9232
-2.89999
-2.97322
-2.9232
-2.85095
-2.82774
-2.89999
-2.85095
-2.77969
-2.75648
-2.82774
-2.77969
-2.70942
-2.68621
-2.75648
-2.70942
-2.64013
-2.61692
-2.68621
-2.64013
-2.57183
-2.54862
-2.61692
-2.57183
-2.50453
-2.48132
-2.54862
-2.50453
-2.4382
-2.41499
-2.48132
-2.4382
-2.37287
-2.34966
-2.41499
-2.37287
-2.30852
-2.28531
-2.34966
-2.30852
-2.24516
-2.22195
-2.28531
-2.24516
-2.18279
-2.15958
-2.22195
-2.18279
-2.12141
-2.0982
-2.15958
-2.12141
-2.06101
-2.0378
-2.0982
-2.06101
-2.0016
-1.97839
-2.0378
-2.0016
-1.94318
-1.91997
-1.97839
-1.94318
-1.88575
-1.86254
-1.91997
-1.88575
-1.8293
-1.80609
-1.86254
-1.8293
-1.77385
-1.75064
-1.80609
-1.77385
-1.71938
-1.69617
-1.75064
-1.71938
-1.66589
-1.64268
-1.69617
-1.66589
-1.6134
-1.59019
-1.64268
-1.6134
-1.56189
-1.53868
-1.59019
-1.56189
-1.51137
-1.48816
-1.53868
-1.51137
-1.46184
-1.43863
-1.48816
-1.46184
-1.4133
-1.39009
-1.43863
-1.4133
-1.36574
-1.34253
-1.39009
-1.36574
-1.31917
-1.29596
-1.34253
-1.31917
-1.27359
-1.25038
-1.29596
-1.27359
-1.229
-1.20579
-1.25038
-1.229
-1.18539
-1.16218
-1.20579
-1.18539
-1.14277
-1.11956
-1.16218
-1.14277
-1.10114
-1.07793
-1.11956
-1.10114
-1.0605
-1.03729
-1.07793
-1.0605
-1.02084
-0.997632
-1.03729
-1.02084
-0.982174
-0.958964
-0.997632
-0.982174
-0.944494
-0.921284
-0.958964
-0.944494
-0.907802
-0.884592
-0.921284
-0.907802
-0.872097
-0.848887
-0.884592
-0.872097
-0.83738
-0.81417
-0.848887
-0.83738
-0.803651
-0.780441
-0.81417
-0.803651
-0.770909
-0.747699
-0.780441
-0.770909
-0.739155
-0.715945
-0.747699
-0.739155
-0.708388
-0.685178
-0.715945
-0.708388
-0.678609
-0.6554
-0.685178
-0.678609
-0.649818
-0.626608
-0.6554
-0.649818
-0.622015
-0.598805
-0.626608
-0.622015
-0.595199
-0.571989
-0.598805
-0.595199
-0.569371
-0.546161
-0.571989
-0.569371
-0.54453
-0.52132
-0.546161
-0.54453
-0.520677
-0.497468
-0.52132
-0.520677
-0.497812
-0.474602
-0.497468
-0.497812
-0.475935
-0.452725
-0.474602
-0.475935
-0.455045
-0.431835
-0.452725
-0.455045
-0.435142
-0.411933
-0.431835
-0.435142
-0.416228
-0.393018
-0.411933
-0.416228
-0.398301
-0.375091
-0.393018
-0.398301
-0.381362
-0.358152
-0.375091
-0.381362
-0.36541
-0.3422
-0.358152
-0.36541
-0.350446
-0.327236
-0.3422
-0.350446
-0.33647
-0.31326
-0.327236
-0.33647
-0.323481
-0.300271
-0.31326
-0.323481
-0.31148
-0.28827
-0.300271
-0.31148
-0.300467
-0.277257
-0.28827
-0.300467
-0.290441
-0.267231
-0.277257
-0.290441
-0.281403
-0.258193
-0.267231
-0.281403
-0.273352
-0.250142
-0.258193
-0.273352
-0.26629
-0.24308
-0.250142
-0.26629
-0.260214
-0.237005
-0.24308
-0.260214
-0.255127
-0.231917
-0.237005
-0.255127
-0.251027
-0.227817
-0.231917
-0.251027
-0.247915
-0.224705
-0.227817
-0.247915
-0.245791
-0.222581
-0.224705
-0.245791
-0.244654
-0.221444
-0.222581
-0.244654
-0.244505
-0.221295
-0.221444
-0.244505
-0.245343
-0.222133
-0.221295
-0.245343
-0.247169
-0.223959
-0.222133
-0.247169
-0.249983
-0.226773
-0.223959
-0.249983
-0.253784
-0.230575
-0.226773
-0.253784
-0.258574
-0.235364
-0.230575
-0.258574
-0.26435
-0.24114
-0.235364
-0.26435
-0.271115
-0.247905
-0.24114
-0.271115
-0.278867
-0.255657
-0.247905
-0.278867
-0.287606
-0.264397
-0.255657
-0.287606
-0.297334
-0.274124
-0.264397
-0.297334
-0.308049
-0.284839
-0.274124
-0.308049
-0.319752
-0.296542
-0.284839
-0.319752
-0.332442
-0.309232
-0.296542
-0.332442
-0.34612
-0.32291
-0.309232
-0.34612
-0.360785
-0.337576
-0.32291
-0.360785
-0.376439
-0.353229
-0.337576
-0.376439
-0.39308
-0.36987
-0.353229
-0.39308
-0.410708
-0.387498
-0.36987
-0.410708
-0.429325
-0.406115
-0.387498
-0.429325
-0.448928
-0.425719
-0.406115
-0.448928
-0.46952
-0.44631
-0.425719