# vtk DataFile Version 1.0
unstructured Grid
ASCII
DATASET UNSTRUCTURED_GRID
POINTS 23440 float 
0 0	 0.0
0.0222222 0	 0.0
0.0222222 0.0222222	 0.0
0 0.0222222	 0.0
0.0222222 0	 0.0
0.0444444 0	 0.0
0.0444444 0.0222222	 0.0
0.0222222 0.0222222	 0.0
0.0444444 0	 0.0
0.0666667 0	 0.0
0.0666667 0.0222222	 0.0
0.0444444 0.0222222	 0.0
0.0666667 0	 0.0
0.0888889 0	 0.0
0.0888889 0.0222222	 0.0
0.0666667 0.0222222	 0.0
0.0888889 0	 0.0
0.111111 0	 0.0
0.111111 0.0222222	 0.0
0.0888889 0.0222222	 0.0
0.111111 0	 0.0
0.133333 0	 0.0
0.133333 0.0222222	 0.0
0.111111 0.0222222	 0.0
0.133333 0	 0.0
0.155556 0	 0.0
0.155556 0.0222222	 0.0
0.133333 0.0222222	 0.0
0.155556 0	 0.0
0.177778 0	 0.0
0.177778 0.0222222	 0.0
0.155556 0.0222222	 0.0
0.177778 0	 0.0
0.2 0	 0.0
0.2 0.0222222	 0.0
0.177778 0.0222222	 0.0
0.2 0	 0.0
0.222222 0	 0.0
0.222222 0.0222222	 0.0
0.2 0.0222222	 0.0
0.222222 0	 0.0
0.244444 0	 0.0
0.244444 0.0222222	 0.0
0.222222 0.0222222	 0.0
0.244444 0	 0.0
0.266667 0	 0.0
0.266667 0.0222222	 0.0
0.244444 0.0222222	 0.0
0.266667 0	 0.0
0.288889 0	 0.0
0.288889 0.0222222	 0.0
0.266667 0.0222222	 0.0
0.288889 0	 0.0
0.311111 0	 0.0
0.311111 0.0222222	 0.0
0.288889 0.0222222	 0.0
0.311111 0	 0.0
0.333333 0	 0.0
0.333333 0.0222222	 0.0
0.311111 0.0222222	 0.0
0.333333 0	 0.0
0.355556 0	 0.0
0.355556 0.0222222	 0.0
0.333333 0.0222222	 0.0
0.355556 0	 0.0
0.377778 0	 0.0
0.377778 0.0222222	 0.0
0.355556 0.0222222	 0.0
0.377778 0	 0.0
0.4 0	 0.0
0.4 0.0222222	 0.0
0.377778 0.0222222	 0.0
0.4 0	 0.0
0.422222 0	 0.0
0.422222 0.0222222	 0.0
0.4 0.0222222	 0.0
0.422222 0	 0.0
0.444444 0	 0.0
0.444444 0.0222222	 0.0
0.422222 0.0222222	 0.0
0.444444 0	 0.0
0.466667 0	 0.0
0.466667 0.0222222	 0.0
0.444444 0.0222222	 0.0
0.466667 0	 0.0
0.488889 0	 0.0
0.488889 0.0222222	 0.0
0.466667 0.0222222	 0.0
0.488889 0	 0.0
0.511111 0	 0.0
0.511111 0.0222222	 0.0
0.488889 0.0222222	 0.0
0.511111 0	 0.0
0.533333 0	 0.0
0.533333 0.0222222	 0.0
0.511111 0.0222222	 0.0
0.533333 0	 0.0
0.555556 0	 0.0
0.555556 0.0222222	 0.0
0.533333 0.0222222	 0.0
0.555556 0	 0.0
0.577778 0	 0.0
0.577778 0.0222222	 0.0
0.555556 0.0222222	 0.0
0.577778 0	 0.0
0.6 0	 0.0
0.6 0.0222222	 0.0
0.577778 0.0222222	 0.0
0.6 0	 0.0
0.622222 0	 0.0
0.622222 0.0222222	 0.0
0.6 0.0222222	 0.0
0.622222 0	 0.0
0.644444 0	 0.0
0.644444 0.0222222	 0.0
0.622222 0.0222222	 0.0
0.644444 0	 0.0
0.666667 0	 0.0
0.666667 0.0222222	 0.0
0.644444 0.0222222	 0.0
0.666667 0	 0.0
0.688889 0	 0.0
0.688889 0.0222222	 0.0
0.666667 0.0222222	 0.0
0.688889 0	 0.0
0.711111 0	 0.0
0.711111 0.0222222	 0.0
0.688889 0.0222222	 0.0
0.711111 0	 0.0
0.733333 0	 0.0
0.733333 0.0222222	 0.0
0.711111 0.0222222	 0.0
0.733333 0	 0.0
0.755556 0	 0.0
0.755556 0.0222222	 0.0
0.733333 0.0222222	 0.0
0.755556 0	 0.0
0.777778 0	 0.0
0.777778 0.0222222	 0.0
0.755556 0.0222222	 0.0
0.777778 0	 0.0
0.8 0	 0.0
0.8 0.0222222	 0.0
0.777778 0.0222222	 0.0
0.8 0	 0.0
0.822222 0	 0.0
0.822222 0.0222222	 0.0
0.8 0.0222222	 0.0
0.822222 0	 0.0
0.844444 0	 0.0
0.844444 0.0222222	 0.0
0.822222 0.0222222	 0.0
0.844444 0	 0.0
0.866667 0	 0.0
0.866667 0.0222222	 0.0
0.844444 0.0222222	 0.0
0.866667 0	 0.0
0.888889 0	 0.0
0.888889 0.0222222	 0.0
0.866667 0.0222222	 0.0
0.888889 0	 0.0
0.911111 0	 0.0
0.911111 0.0222222	 0.0
0.888889 0.0222222	 0.0
0.911111 0	 0.0
0.933333 0	 0.0
0.933333 0.0222222	 0.0
0.911111 0.0222222	 0.0
0.933333 0	 0.0
0.955556 0	 0.0
0.955556 0.0222222	 0.0
0.933333 0.0222222	 0.0
0.955556 0	 0.0
0.977778 0	 0.0
0.977778 0.0222222	 0.0
0.955556 0.0222222	 0.0
0.977778 0	 0.0
1 0	 0.0
1 0.0222222	 0.0
0.977778 0.0222222	 0.0
1 0	 0.0
1.02222 0	 0.0
1.02222 0.0222222	 0.0
1 0.0222222	 0.0
1.02222 0	 0.0
1.04444 0	 0.0
1.04444 0.0222222	 0.0
1.02222 0.0222222	 0.0
1.04444 0	 0.0
1.06667 0	 0.0
1.06667 0.0222222	 0.0
1.04444 0.0222222	 0.0
1.06667 0	 0.0
1.08889 0	 0.0
1.08889 0.0222222	 0.0
1.06667 0.0222222	 0.0
1.08889 0	 0.0
1.11111 0	 0.0
1.11111 0.0222222	 0.0
1.08889 0.0222222	 0.0
1.11111 0	 0.0
1.13333 0	 0.0
1.13333 0.0222222	 0.0
1.11111 0.0222222	 0.0
1.13333 0	 0.0
1.15556 0	 0.0
1.15556 0.0222222	 0.0
1.13333 0.0222222	 0.0
1.15556 0	 0.0
1.17778 0	 0.0
1.17778 0.0222222	 0.0
1.15556 0.0222222	 0.0
1.17778 0	 0.0
1.2 0	 0.0
1.2 0.0222222	 0.0
1.17778 0.0222222	 0.0
1.2 0	 0.0
1.22222 0	 0.0
1.22222 0.0222222	 0.0
1.2 0.0222222	 0.0
1.22222 0	 0.0
1.24444 0	 0.0
1.24444 0.0222222	 0.0
1.22222 0.0222222	 0.0
1.24444 0	 0.0
1.26667 0	 0.0
1.26667 0.0222222	 0.0
1.24444 0.0222222	 0.0
1.26667 0	 0.0
1.28889 0	 0.0
1.28889 0.0222222	 0.0
1.26667 0.0222222	 0.0
1.28889 0	 0.0
1.31111 0	 0.0
1.31111 0.0222222	 0.0
1.28889 0.0222222	 0.0
1.31111 0	 0.0
1.33333 0	 0.0
1.33333 0.0222222	 0.0
1.31111 0.0222222	 0.0
1.33333 0	 0.0
1.35556 0	 0.0
1.35556 0.0222222	 0.0
1.33333 0.0222222	 0.0
1.35556 0	 0.0
1.37778 0	 0.0
1.37778 0.0222222	 0.0
1.35556 0.0222222	 0.0
1.37778 0	 0.0
1.4 0	 0.0
1.4 0.0222222	 0.0
1.37778 0.0222222	 0.0
1.4 0	 0.0
1.42222 0	 0.0
1.42222 0.0222222	 0.0
1.4 0.0222222	 0.0
1.42222 0	 0.0
1.44444 0	 0.0
1.44444 0.0222222	 0.0
1.42222 0.0222222	 0.0
1.44444 0	 0.0
1.46667 0	 0.0
1.46667 0.0222222	 0.0
1.44444 0.0222222	 0.0
1.46667 0	 0.0
1.48889 0	 0.0
1.48889 0.0222222	 0.0
1.46667 0.0222222	 0.0
1.48889 0	 0.0
1.51111 0	 0.0
1.51111 0.0222222	 0.0
1.48889 0.0222222	 0.0
1.51111 0	 0.0
1.53333 0	 0.0
1.53333 0.0222222	 0.0
1.51111 0.0222222	 0.0
1.53333 0	 0.0
1.55556 0	 0.0
1.55556 0.0222222	 0.0
1.53333 0.0222222	 0.0
1.55556 0	 0.0
1.57778 0	 0.0
1.57778 0.0222222	 0.0
1.55556 0.0222222	 0.0
1.57778 0	 0.0
1.6 0	 0.0
1.6 0.0222222	 0.0
1.57778 0.0222222	 0.0
1.6 0	 0.0
1.62222 0	 0.0
1.62222 0.0222222	 0.0
1.6 0.0222222	 0.0
1.62222 0	 0.0
1.64444 0	 0.0
1.64444 0.0222222	 0.0
1.62222 0.0222222	 0.0
1.64444 0	 0.0
1.66667 0	 0.0
1.66667 0.0222222	 0.0
1.64444 0.0222222	 0.0
1.66667 0	 0.0
1.68889 0	 0.0
1.68889 0.0222222	 0.0
1.66667 0.0222222	 0.0
1.68889 0	 0.0
1.71111 0	 0.0
1.71111 0.0222222	 0.0
1.68889 0.0222222	 0.0
1.71111 0	 0.0
1.73333 0	 0.0
1.73333 0.0222222	 0.0
1.71111 0.0222222	 0.0
1.73333 0	 0.0
1.75556 0	 0.0
1.75556 0.0222222	 0.0
1.73333 0.0222222	 0.0
1.75556 0	 0.0
1.77778 0	 0.0
1.77778 0.0222222	 0.0
1.75556 0.0222222	 0.0
1.77778 0	 0.0
1.8 0	 0.0
1.8 0.0222222	 0.0
1.77778 0.0222222	 0.0
1.8 0	 0.0
1.82222 0	 0.0
1.82222 0.0222222	 0.0
1.8 0.0222222	 0.0
1.82222 0	 0.0
1.84444 0	 0.0
1.84444 0.0222222	 0.0
1.82222 0.0222222	 0.0
1.84444 0	 0.0
1.86667 0	 0.0
1.86667 0.0222222	 0.0
1.84444 0.0222222	 0.0
1.86667 0	 0.0
1.88889 0	 0.0
1.88889 0.0222222	 0.0
1.86667 0.0222222	 0.0
1.88889 0	 0.0
1.91111 0	 0.0
1.91111 0.0222222	 0.0
1.88889 0.0222222	 0.0
1.91111 0	 0.0
1.93333 0	 0.0
1.93333 0.0222222	 0.0
1.91111 0.0222222	 0.0
1.93333 0	 0.0
1.95556 0	 0.0
1.95556 0.0222222	 0.0
1.93333 0.0222222	 0.0
1.95556 0	 0.0
1.97778 0	 0.0
1.97778 0.0222222	 0.0
1.95556 0.0222222	 0.0
1.97778 0	 0.0
2 0	 0.0
2 0.0222222	 0.0
1.97778 0.0222222	 0.0
2 0	 0.0
2.02222 0	 0.0
2.02222 0.0222222	 0.0
2 0.0222222	 0.0
2.02222 0	 0.0
2.04444 0	 0.0
2.04444 0.0222222	 0.0
2.02222 0.0222222	 0.0
2.04444 0	 0.0
2.06667 0	 0.0
2.06667 0.0222222	 0.0
2.04444 0.0222222	 0.0
2.06667 0	 0.0
2.08889 0	 0.0
2.08889 0.0222222	 0.0
2.06667 0.0222222	 0.0
2.08889 0	 0.0
2.11111 0	 0.0
2.11111 0.0222222	 0.0
2.08889 0.0222222	 0.0
2.11111 0	 0.0
2.13333 0	 0.0
2.13333 0.0222222	 0.0
2.11111 0.0222222	 0.0
2.13333 0	 0.0
2.15556 0	 0.0
2.15556 0.0222222	 0.0
2.13333 0.0222222	 0.0
2.15556 0	 0.0
2.17778 0	 0.0
2.17778 0.0222222	 0.0
2.15556 0.0222222	 0.0
2.17778 0	 0.0
2.2 0	 0.0
2.2 0.0222222	 0.0
2.17778 0.0222222	 0.0
2.2 0	 0.0
2.22222 0	 0.0
2.22222 0.0222222	 0.0
2.2 0.0222222	 0.0
2.22222 0	 0.0
2.24444 0	 0.0
2.24444 0.0222222	 0.0
2.22222 0.0222222	 0.0
2.24444 0	 0.0
2.26667 0	 0.0
2.26667 0.0222222	 0.0
2.24444 0.0222222	 0.0
2.26667 0	 0.0
2.28889 0	 0.0
2.28889 0.0222222	 0.0
2.26667 0.0222222	 0.0
2.28889 0	 0.0
2.31111 0	 0.0
2.31111 0.0222222	 0.0
2.28889 0.0222222	 0.0
2.31111 0	 0.0
2.33333 0	 0.0
2.33333 0.0222222	 0.0
2.31111 0.0222222	 0.0
2.33333 0	 0.0
2.35556 0	 0.0
2.35556 0.0222222	 0.0
2.33333 0.0222222	 0.0
2.35556 0	 0.0
2.37778 0	 0.0
2.37778 0.0222222	 0.0
2.35556 0.0222222	 0.0
2.37778 0	 0.0
2.4 0	 0.0
2.4 0.0222222	 0.0
2.37778 0.0222222	 0.0
2.4 0	 0.0
2.42222 0	 0.0
2.42222 0.0222222	 0.0
2.4 0.0222222	 0.0
2.42222 0	 0.0
2.44444 0	 0.0
2.44444 0.0222222	 0.0
2.42222 0.0222222	 0.0
2.44444 0	 0.0
2.46667 0	 0.0
2.46667 0.0222222	 0.0
2.44444 0.0222222	 0.0
2.46667 0	 0.0
2.48889 0	 0.0
2.48889 0.0222222	 0.0
2.46667 0.0222222	 0.0
2.48889 0	 0.0
2.51111 0	 0.0
2.51111 0.0222222	 0.0
2.48889 0.0222222	 0.0
2.51111 0	 0.0
2.53333 0	 0.0
2.53333 0.0222222	 0.0
2.51111 0.0222222	 0.0
2.53333 0	 0.0
2.55556 0	 0.0
2.55556 0.0222222	 0.0
2.53333 0.0222222	 0.0
2.55556 0	 0.0
2.57778 0	 0.0
2.57778 0.0222222	 0.0
2.55556 0.0222222	 0.0
2.57778 0	 0.0
2.6 0	 0.0
2.6 0.0222222	 0.0
2.57778 0.0222222	 0.0
2.6 0	 0.0
2.62222 0	 0.0
2.62222 0.0222222	 0.0
2.6 0.0222222	 0.0
2.62222 0	 0.0
2.64444 0	 0.0
2.64444 0.0222222	 0.0
2.62222 0.0222222	 0.0
2.64444 0	 0.0
2.66667 0	 0.0
2.66667 0.0222222	 0.0
2.64444 0.0222222	 0.0
2.66667 0	 0.0
2.68889 0	 0.0
2.68889 0.0222222	 0.0
2.66667 0.0222222	 0.0
2.68889 0	 0.0
2.71111 0	 0.0
2.71111 0.0222222	 0.0
2.68889 0.0222222	 0.0
2.71111 0	 0.0
2.73333 0	 0.0
2.73333 0.0222222	 0.0
2.71111 0.0222222	 0.0
2.73333 0	 0.0
2.75556 0	 0.0
2.75556 0.0222222	 0.0
2.73333 0.0222222	 0.0
2.75556 0	 0.0
2.77778 0	 0.0
2.77778 0.0222222	 0.0
2.75556 0.0222222	 0.0
2.77778 0	 0.0
2.8 0	 0.0
2.8 0.0222222	 0.0
2.77778 0.0222222	 0.0
2.8 0	 0.0
2.82222 0	 0.0
2.82222 0.0222222	 0.0
2.8 0.0222222	 0.0
2.82222 0	 0.0
2.84444 0	 0.0
2.84444 0.0222222	 0.0
2.82222 0.0222222	 0.0
2.84444 0	 0.0
2.86667 0	 0.0
2.86667 0.0222222	 0.0
2.84444 0.0222222	 0.0
2.86667 0	 0.0
2.88889 0	 0.0
2.88889 0.0222222	 0.0
2.86667 0.0222222	 0.0
2.88889 0	 0.0
2.91111 0	 0.0
2.91111 0.0222222	 0.0
2.88889 0.0222222	 0.0
2.91111 0	 0.0
[...]
POINT_DATA 23440
SCALARS levelset_first float
LOOKUP_TABLE default
-4.28467
-4.19666
-4.17049
-4.25849
-4.19666
-4.10965
-4.08348
-4.17049
-4.10965
-4.02362
-3.99745
-4.08348
-4.02362
-3.93859
-3.91241
-3.99745
-3.93859
-3.85453
-3.82836
-3.91241
-3.85453
-3.77147
-3.7453
-3.82836
-3.77147
-3.6894
-3.66322
-3.7453
-3.6894
-3.60831
-3.58214
-3.66322
-3.60831
-3.52821
-3.50203
-3.58214
-3.52821
-3.44909
-3.42292
-3.50203
-3.44909
-3.37097
-3.3448
-3.42292
-3.37097
-3.29383
-3.26766
-3.3448
-3.29383
-3.21768
-3.19151
-3.26766
-3.21768
-3.14252
-3.11635
-3.19151
-3.14252
-3.06835
-3.04217
-3.11635
-3.06835
-2.99516
-2.96899
-3.04217
-2.99516
-2.92296
-2.89679
-2.96899
-2.92296
-2.85175
-2.82558
-2.89679
-2.85175
-2.78152
-2.75535
-2.82558
-2.78152
-2.71229
-2.68612
-2.75535
-2.71229
-2.64404
-2.61787
-2.68612
-2.64404
-2.57678
-2.55061
-2.61787
-2.57678
-2.51051
-2.48433
-2.55061
-2.51051
-2.44522
-2.41905
-2.48433
-2.44522
-2.38092
-2.35475
-2.41905
-2.38092
-2.31761
-2.29144
-2.35475
-2.31761
-2.25529
-2.22912
-2.29144
-2.25529
-2.19395
-2.16778
-2.22912
-2.19395
-2.13361
-2.10743
-2.16778
-2.13361
-2.07425
-2.04808
-2.10743
-2.07425
-2.01588
-1.9897
-2.04808
-2.01588
-1.95849
-1.93232
-1.9897
-1.95849
-1.9021
-1.87592
-1.93232
-1.9021
-1.84669
-1.82051
-1.87592
-1.84669
-1.79226
-1.76609
-1.82051
-1.79226
-1.73883
-1.71266
-1.76609
-1.73883
-1.68639
-1.66021
-1.71266
-1.68639
-1.63493
-1.60875
-1.66021
-1.63493
-1.58446
-1.55828
-1.60875
-1.58446
-1.53497
-1.5088
-1.55828
-1.53497
-1.48648
-1.4603
-1.5088
-1.48648
-1.43897
-1.4128
-1.4603
-1.43897
-1.39245
-1.36628
-1.4128
-1.39245
-1.34692
-1.32074
-1.36628
-1.34692
-1.30237
-1.2762
-1.32074
-1.30237
-1.25882
-1.23264
-1.2762
-1.25882
-1.21625
-1.19007
-1.23264
-1.21625
-1.17466
-1.14849
-1.19007
-1.17466
-1.13407
-1.1079
-1.14849
-1.13407
-1.09446
-1.06829
-1.1079
-1.09446
-1.05584
-1.02967
-1.06829
-1.05584
-1.01821
-0.99204
-1.02967
-1.01821
-0.981569
-0.955397
-0.99204
-0.981569
-0.945914
-0.919741
-0.955397
-0.945914
-0.911245
-0.885072
-0.919741
-0.911245
-0.877565
-0.851392
-0.885072
-0.877565
-0.844872
-0.818699
-0.851392
-0.844872
-0.813166
-0.786994
-0.818699
-0.813166
-0.782449
-0.756276
-0.786994
-0.782449
-0.752719
-0.726546
-0.756276
-0.752719
-0.723976
-0.697804
-0.726546
-0.723976
-0.696222
-0.670049
-0.697804
-0.696222
-0.669455
-0.643282
-0.670049
-0.669455
-0.643675
-0.617503
-0.643282
-0.643675
-0.618884
-0.592711
-0.617503
-0.618884
-0.59508
-0.568907
-0.592711
-0.59508
-0.572263
-0.54609
-0.568907
-0.572263
-0.550434
-0.524262
-0.54609
-0.550434
-0.529593
-0.50342
-0.524262
-0.529593
-0.50974
-0.483567
-0.50342
-0.50974
-0.490874
-0.464701
-0.483567
-0.490874
-0.472996
-0.446823
-0.464701
-0.472996
-0.456105
-0.429933
-0.446823
-0.456105
-0.440203
-0.41403
-0.429933
-0.440203
-0.425287
-0.399115
-0.41403
-0.425287
-0.41136
-0.385187
-0.399115
-0.41136
-0.39842
-0.372247
-0.385187
-0.39842
-0.386468
-0.360295
-0.372247
-0.386468
-0.375503
-0.34933
-0.360295
-0.375503
-0.365526
-0.339354
-0.34933
-0.365526
-0.356537
-0.330364
-0.339354
-0.356537
-0.348536
-0.322363
-0.330364
-0.348536
-0.341522
-0.315349
-0.322363
-0.341522
-0.335495
-0.309323
-0.315349
-0.335495
-0.330457
-0.304284
-0.309323
-0.330457
-0.326406
-0.300233
-0.304284
-0.326406
-0.323342
-0.29717
-0.300233
-0.323342
-0.321267
-0.295094
-0.29717
-0.321267
-0.320179
-0.294006
-0.295094
-0.320179
-0.320078
-0.293906
-0.294006
-0.320078
-0.320966
-0.294793
-0.293906
-0.320966
-0.322841
-0.296668
-0.294793
-0.322841
-0.325703
-0.29953
-0.296668
-0.325703
-0.329553
-0.303381
-0.29953
-0.329553
-0.334391
-0.308219
-0.303381
-0.334391
-0.340217
-0.314044
-0.308219
-0.340217
-0.34703
-0.320857
-0.314044
-0.34703
-0.354831
-0.328658
-0.320857
-0.354831
-0.36362
-0.337447
-0.328658
-0.36362
-0.373396
-0.347223
-0.337447
-0.373396
-0.38416
-0.357987
-0.347223
-0.38416
-0.395911
-0.369738
-0.357987
-0.395911
-0.40865
-0.382477
-0.369738
-0.40865
-0.422377
-0.396204
-0.382477
-0.422377
-0.437092
-0.410919
-0.396204
-0.437092
-0.452794
-0.426621
-0.410919
-0.452794
-0.469483
-0.443311
-0.426621
-0.469483
-0.487161
-0.460988
-0.443311
-0.487161
-0.505826
-0.479653
-0.460988
-0.505826
-0.525479
-0.499306
-0.479653
-0.525479
-0.546119
-0.519946
-0.499306
-0.546119
-0.567747
-0.541574
-0.519946
-0.567747
-0.590363
-0.56419
-0.541574
-0.590363
-0.613966
-0.587793
-0.56419
-0.613966
-0.638557
-0.612384
-0.587793
-0.638557
-0.664136
-0.637963
-0.612384
-0.664136
-0.690702
-0.664529
-0.637963
-0.690702
-0.718256
-0.692083
-0.664529
-0.718256
-0.746798
-0.720625
-0.692083
-0.746798
-0.776327
-0.750154
-0.720625
-0.776327
-0.806844
-0.780671
-0.750154
-0.806844
-0.838348
-0.812176
-0.780671
-0.838348
-0.870841
-0.844668
-0.812176
-0.870841
-0.90432
-0.878148
-0.844668
-0.90432
-0.938788
-0.912615
-0.878148
-0.938788
-0.974243
-0.94807
-0.912615
-0.974243
-1.01069
-0.984513
-0.94807
-1.01069
-1.04812
-1.02194
-0.984513
-1.04812
-1.08653
-1.06036
-1.02194
-1.08653
-1.12594
-1.09977
-1.06036
-1.12594
-1.16633
-1.14016
-1.09977
-1.16633
-1.20772
-1.18154
-1.14016
-1.20772
-1.25008
-1.22391
-1.18154
-1.25008
-1.29344
-1.26727
-1.22391
-1.29344
-1.33778
-1.31161
-1.26727
-4.25849
-4.17049
-4.14531
-4.23331
-4.17049
-4.08348
-4.05829
-4.14531
-4.08348
-3.99745
-3.97227
-4.05829
-3.99745
-3.91241
-3.88723
-3.97227
-3.91241
-3.82836
-3.80318
-3.88723
-3.82836
-3.7453
-3.72011
-3.80318
-3.7453
-3.66322
-3.63804
-3.72011
-3.66322
-3.58214
-3.55695
-3.63804
-3.58214
-3.50203
-3.47685
-3.55695
-3.50203
-3.42292
-3.39774
-3.47685
-3.42292
-3.3448
-3.31961
-3.39774
-3.3448
-3.26766
-3.24247
-3.31961
-3.26766
-3.19151
-3.16632
-3.24247
-3.19151
-3.11635
-3.09116
-3.16632
-3.11635
-3.04217
-3.01699
-3.09116
-3.04217
-2.96899
-2.9438
-3.01699
-2.96899
-2.89679
-2.8716
-2.9438
-2.89679
-2.82558
-2.80039
-2.8716
-2.82558
-2.75535
-2.73017
-2.80039
-2.75535
-2.68612
-2.66093
-2.73017
-2.68612
-2.61787
-2.59268
-2.66093
-2.61787
-2.55061
-2.52542
-2.59268
-2.55061
-2.48433
-2.45915
-2.52542
-2.48433
-2.41905
-2.39386
-2.45915
-2.41905
-2.35475
-2.32956
-2.39386
-2.35475
-2.29144
-2.26625
-2.32956
-2.29144
-2.22912
-2.20393
-2.26625
-2.22912
-2.16778
-2.1426
-2.20393
-2.16778
-2.10743
-2.08225
-2.1426
-2.10743
-2.04808
-2.02289
-2.08225
-2.04808
-1.9897
-1.96452
-2.02289
-1.9897
-1.93232
-1.90713
-1.96452
-1.93232
-1.87592
-1.85074
-1.90713
-1.87592
-1.82051
-1.79533
-1.85074
-1.82051
-1.76609
-1.74091
-1.79533
-1.76609
-1.71266
-1.68747
-1.74091
-1.71266
-1.66021
-1.63503
-1.68747
-1.66021
-1.60875
-1.58357
-1.63503
-1.60875
-1.55828
-1.5331
-1.58357
-1.55828
-1.5088
-1.48361
-1.5331
-1.5088
-1.4603
-1.43512
-1.48361
-1.4603
-1.4128
-1.38761
-1.43512
-1.4128
-1.36628
-1.34109
-1.38761
-1.36628
-1.32074
-1.29556
-1.34109
-1.32074
-1.2762
-1.25101
-1.29556
-1.2762
-1.23264
-1.20746
-1.25101
-1.23264
-1.19007
-1.16489
-1.20746
-1.19007
-1.14849
-1.12331
-1.16489
-1.14849
-1.1079
-1.08271
-1.12331
-1.1079
-1.06829
-1.04311
-1.08271
-1.06829
-1.02967
-1.00449
-1.04311
-1.02967
-0.99204
-0.966855
-1.00449
-0.99204
-0.955397
-0.930211
-0.966855
-0.955397
-0.919741
-0.894556
-0.930211
-0.919741
-0.885072
-0.859887
-0.894556
-0.885072
-0.851392
-0.826207
-0.859887
-0.851392
-0.818699
-0.793514
-0.826207
-0.818699
-0.786994
-0.761808
-0.793514
-0.786994
-0.756276
-0.731091
-0.761808
-0.756276
-0.726546
-0.701361
-0.731091
-0.726546
-0.697804
-0.672618
-0.701361
-0.697804
-0.670049
-0.644864
-0.672618
-0.670049
-0.643282
-0.618097
-0.644864
-0.643282
-0.617503
-0.592317
-0.618097
-0.617503
-0.592711
-0.567526
-0.592317
-0.592711
-0.568907
-0.543722
-0.567526
-0.568907
-0.54609
-0.520905
-0.543722
-0.54609
-0.524262
-0.499076
-0.520905
-0.524262
-0.50342
-0.478235
-0.499076
-0.50342
-0.483567
-0.458382
-0.478235
-0.483567
-0.464701
-0.439516
-0.458382
-0.464701
-0.446823
-0.421638
-0.439516
-0.446823
-0.429933
-0.404747
-0.421638
-0.429933
-0.41403
-0.388845
-0.404747
-0.41403
-0.399115
-0.373929
-0.388845
-0.399115
-0.385187
-0.360002
-0.373929
-0.385187
-0.372247
-0.347062
-0.360002
-0.372247
-0.360295
-0.33511
-0.347062
-0.360295
-0.34933
-0.324145
-0.33511
-0.34933
-0.339354
-0.314168
-0.324145
-0.339354
-0.330364
-0.305179
-0.314168
-0.330364
-0.322363
-0.297178
-0.305179
-0.322363
-0.315349
-0.290164
-0.297178
-0.315349
-0.309323
-0.284137
-0.290164
-0.309323
-0.304284
-0.279099
-0.284137
-0.304284
-0.300233
-0.275048
-0.279099
-0.300233
-0.29717
-0.271984
-0.275048
-0.29717
-0.295094
-0.269909
-0.271984
-0.295094
-0.294006
-0.268821
-0.269909
-0.294006
-0.293906
-0.26872
-0.268821
-0.293906
-0.294793
-0.269608
-0.26872
-0.294793
-0.296668
-0.271483
-0.269608
-0.296668
-0.29953
-0.274345
-0.271483
-0.29953
-0.303381
-0.278195
-0.274345
-0.303381
-0.308219
-0.283033
-0.278195
-0.308219
-0.314044
-0.288859
-0.283033
-0.314044
-0.320857
-0.295672
-0.288859
-0.320857
-0.328658
-0.303473
-0.295672
-0.328658
-0.337447
-0.312262
-0.303473
-0.337447
-0.347223
-0.322038
-0.312262
-0.347223
-0.357987
-0.332802
-0.322038
-0.357987
-0.369738
-0.344553
-0.332802
-0.369738
-0.382477
-0.357292
-0.344553
-0.382477
-0.396204
-0.371019
-0.357292
-0.396204
-0.410919
-0.385733
-0.371019
-0.410919
-0.426621
-0.401436
-0.385733
-0.426621
-0.443311
-0.418125
-0.401436
-0.443311
-0.460988
-0.435803
-0.418125
-0.460988
-0.479653
-0.454468
-0.435803
-0.479653
-0.499306
-0.474121
-0.454468
-0.499306
-0.519946
-0.494761
-0.474121
-0.519946
-0.541574
-0.516389
-0.494761
-0.541574
-0.56419
-0.539005
-0.516389
-0.56419
-0.587793
-0.562608
-0.539005
-0.587793
-0.612384
-0.587199
-0.562608
-0.612384
-0.637963
-0.612778
-0.587199
-0.637963
-0.664529
-0.639344
-0.612778
-0.664529
-0.692083
-0.666898
-0.639344
-0.692083
-0.720625
-0.69544
-0.666898
-0.720625
-0.750154
-0.724969
-0.69544
-0.750154
-0.780671
-0.755486
-0.724969
-0.780671
-0.812176
-0.78699
-0.755486
-0.812176
-0.844668
-0.819483
-0.78699
-0.844668
-0.878148
-0.852962
-0.819483
-0.878148
-0.912615
-0.88743
-0.852962
-0.912615
-0.94807
-0.922885
-0.88743
-0.94807
-0.984513
-0.959328
-0.922885
-0.984513
-1.02194
-0.996759
-0.959328
-1.02194
-1.06036
-1.03518
-0.996759
-1.06036
-1.09977
-1.07458
-1.03518
-1.09977
-1.14016
-1.11498
-1.07458
-1.14016
-1.18154
-1.15636
-1.11498
-1.18154
-1.22391
-1.19873
-1.15636
-1.22391
-1.26727
-1.24208
-1.19873
-1.26727
-1.31161
-1.28643
-1.24208
-4.23331
-4.14531
-4.12111
-4.20911
-4.14531
-4.05829
-4.0341
-4.12111
-4.05829
-3.97227
-3.94807
-4.0341
-3.97227
-3.88723
-3.86303
-3.94807
-3.88723
-3.80318
-3.77898
-3.86303
-3.80318
-3.72011
-3.69592
-3.77898
-3.72011
-3.63804
-3.61384
-3.69592
-3.63804
-3.55695
-3.53275
-3.61384
-3.55695
-3.47685
-3.45265
-3.53275
-3.47685
-3.39774
-3.37354
-3.45265
-3.39774
-3.31961
-3.29541
-3.37354
-3.31961
-3.24247
-3.21828
-3.29541
-3.24247
-3.16632
-3.14213
-3.21828
-3.16632
-3.09116
-3.06696
-3.14213
-3.09116
-3.01699
-2.99279
-3.06696
-3.01699
-2.9438
-2.9196
-2.99279
-2.9438
-2.8716
-2.8474
-2.9196
-2.8716
-2.80039
-2.77619
-2.8474
-2.80039
-2.73017
-2.70597
-2.77619
-2.73017
-2.66093
-2.63673
-2.70597
-2.66093
-2.59268
-2.56848
-2.63673
-2.59268
-2.52542
-2.50122
-2.56848
-2.52542
-2.45915
-2.43495
-2.50122
-2.45915
-2.39386
-2.36967
-2.43495
-2.39386
-2.32956
-2.30537
-2.36967
-2.32956
-2.26625
-2.24206
-2.30537
-2.26625
-2.20393
-2.17973
-2.24206
-2.20393
-2.1426
-2.1184
-2.17973
-2.1426
-2.08225
-2.05805
-2.1184
-2.08225
-2.02289
-1.99869
-2.05805
-2.02289
-1.96452
-1.94032
-1.99869
-1.96452
-1.90713
-1.88294
-1.94032
-1.90713
-1.85074
-1.82654
-1.88294
-1.85074
-1.79533
-1.77113
-1.82654
-1.79533
-1.74091
-1.71671
-1.77113
-1.74091
-1.68747
-1.66328
-1.71671
-1.68747
-1.63503
-1.61083
-1.66328
-1.63503
-1.58357
-1.55937
-1.61083
-1.58357
-1.5331
-1.5089
-1.55937
-1.5331
-1.48361
-1.45942
-1.5089
-1.48361
-1.43512
-1.41092
-1.45942
-1.43512
-1.38761
-1.36341
-1.41092
-1.38761
-1.34109
-1.31689
-1.36341
-1.34109
-1.29556
-1.27136
-1.31689
-1.29556
-1.25101
-1.22682
-1.27136
-1.25101
-1.20746
-1.18326
-1.22682
-1.20746
-1.16489
-1.14069
-1.18326
-1.16489
-1.12331
-1.09911
-1.14069
-1.12331
-1.08271
-1.05851
-1.09911
-1.08271
-1.04311
-1.01891
-1.05851
-1.04311
-1.00449
-0.980289
-1.01891
-1.00449
-0.966855
-0.942657
-0.980289
-0.966855
-0.930211
-0.906014
-0.942657
-0.930211
-0.894556
-0.870358
-0.906014
-0.894556
-0.859887
-0.83569
-0.870358
-0.859887
-0.826207
-0.802009
-0.83569
-0.826207
-0.793514
-0.769316
-0.802009
-0.793514
-0.761808
-0.737611
-0.769316
-0.761808
-0.731091
-0.706893
-0.737611
-0.731091
-0.701361
-0.677163
-0.706893
-0.701361
-0.672618
-0.648421
-0.677163
-0.672618
-0.644864
-0.620666
-0.648421
-0.644864
-0.618097
-0.593899
-0.620666
-0.618097
-0.592317
-0.56812
-0.593899
-0.592317
-0.567526
-0.543328
-0.56812
-0.567526
-0.543722
-0.519524
-0.543328
-0.543722
-0.520905
-0.496708
-0.519524
-0.520905
-0.499076
-0.474879
-0.496708
-0.499076
-0.478235
-0.454038
-0.474879
-0.478235
-0.458382
-0.434184
-0.454038
-0.458382
-0.439516
-0.415319
-0.434184
-0.439516
-0.421638
-0.39744
-0.415319
-0.421638
-0.404747
-0.38055
-0.39744
-0.404747
-0.388845
-0.364647
-0.38055
-0.388845
-0.373929
-0.349732
-0.364647
-0.373929
-0.360002
-0.335804
-0.349732
-0.360002
-0.347062
-0.322865
-0.335804
-0.347062
-0.33511
-0.310912
-0.322865
-0.33511
-0.324145
-0.299948
-0.310912
-0.324145
-0.314168
-0.289971
-0.299948
-0.314168
-0.305179
-0.280982
-0.289971
-0.305179
-0.297178
-0.27298
-0.280982
-0.297178
-0.290164
-0.265966
-0.27298
-0.290164
-0.284137
-0.25994
-0.265966
-0.284137
-0.279099
-0.254901
-0.25994
-0.279099
-0.275048
-0.25085
-0.254901
-0.275048
-0.271984
-0.247787
-0.25085
-0.271984
-0.269909
-0.245711
-0.247787
-0.269909
-0.268821
-0.244623
-0.245711
-0.268821
-0.26872
-0.244523
-0.244623
-0.26872
-0.269608
-0.24541
-0.244523
-0.269608
-0.271483
-0.247285
-0.24541
-0.271483
-0.274345
-0.250148
-0.247285
-0.274345
-0.278195
-0.253998
-0.250148
-0.278195
-0.283033
-0.258836
-0.253998
-0.283033
-0.288859
-0.264661
-0.258836
-0.288859
-0.295672
-0.271475
-0.264661
-0.295672
-0.303473
-0.279276
-0.271475
-0.303473
-0.312262
-0.288064
-0.279276
-0.312262
-0.322038
-0.29784
-0.288064
-0.322038
-0.332802
-0.308604
-0.29784
-0.332802
-0.344553
-0.320356
-0.308604
-0.344553
-0.357292
-0.333095
-0.320356
-0.357292
-0.371019
-0.346821
-0.333095
-0.371019
-0.385733
-0.361536
-0.346821
-0.385733
-0.401436
-0.377238
-0.361536
-0.401436
-0.418125
-0.393928
-0.377238
-0.418125
-0.435803
-0.411605
-0.393928
-0.435803
-0.454468
-0.43027
-0.411605
-0.454468
-0.474121
-0.449923
-0.43027
-0.474121
-0.494761
-0.470563
-0.449923
-0.494761
-0.516389
-0.492191
-0.470563
-0.516389
-0.539005
-0.514807
-0.492191
-0.539005
-0.562608
-0.53841
-0.514807
-0.562608
-0.587199
-0.563001
-0.53841
-0.587199
-0.612778
-0.58858
-0.563001
-0.612778
-0.639344
-0.615146
-0.58858
-0.639344
-0.666898
-0.6427
-0.615146
-0.666898
-0.69544
-0.671242
-0.6427
-0.69544
-0.724969
-0.700771
-0.671242
-0.724969
-0.755486
-0.731288
-0.700771
-0.755486
-0.78699
-0.762793
-0.731288
-0.78699
-0.819483
-0.795285
-0.762793
-0.819483
-0.852962
-0.828765
-0.795285
-0.852962
-0.88743
-0.863232
-0.828765
-0.88743
-0.922885
-0.898688
-0.863232
-0.922885
-0.959328
-0.935131
-0.898688
-0.959328
-0.996759
-0.972561
-0.935131
-0.996759
-1.03518
-1.01098
-0.972561
-1.03518
-1.07458
-1.05038
-1.01098
-1.07458
-1.11498
-1.09078
-1.05038
-1.11498
-1.15636
-1.13216
-1.09078
-1.15636
-1.19873
-1.17453
-1.13216
-1.19873
-1.24208
-1.21788
-1.17453
-1.24208
-1.28643
-1.26223
-1.21788
-4.20911
-4.12111
-4.0979
-4.1859
-4.12111
-4.0341
-4.01089
-4.0979
-4.0341
-3.94807
-3.92486
-4.01089
-3.94807
-3.86303
-3.83982
-3.92486
-3.86303
-3.77898
-3.75577
-3.83982
-3.77898
-3.69592
-3.67271
-3.75577
-3.69592
-3.61384
-3.59063
-3.67271
-3.61384
-3.53275
-3.50954
-3.59063
-3.53275
-3.45265
-3.42944
-3.50954
-3.45265
-3.37354
-3.35033
-3.42944
-3.37354
-3.29541
-3.2722
-3.35033
-3.29541
-3.21828
-3.19507
-3.2722
-3.21828
-3.14213
-3.11892
-3.19507
-3.14213
-3.06696
-3.04376
-3.11892
-3.06696
-2.99279
-2.96958
-3.04376
-2.99279
-2.9196
-2.89639
-2.96958
-2.9196
-2.8474
-2.82419
-2.89639
-2.8474
-2.77619
-2.75298
-2.82419
-2.77619
-2.70597
-2.68276
-2.75298
-2.70597
-2.63673
-2.61352
-2.68276
-2.63673
-2.56848
-2.54527
-2.61352
-2.56848
-2.50122
-2.47801
-2.54527
-2.50122
-2.43495
-2.41174
-2.47801
-2.43495
-2.36967
-2.34646
-2.41174
-2.36967
-2.30537
-2.28216
-2.34646
-2.30537
-2.24206
-2.21885
-2.28216
-2.24206
-2.17973
-2.15652
-2.21885
-2.17973
-2.1184
-2.09519
-2.15652
-2.1184
-2.05805
-2.03484
-2.09519
-2.05805
-1.99869
-1.97548
-2.03484
-1.99869
-1.94032
-1.91711
-1.97548
-1.94032
-1.88294
-1.85973
-1.91711
-1.88294
-1.82654
-1.80333
-1.85973
-1.82654
-1.77113
-1.74792
-1.80333
-1.77113
-1.71671
-1.6935
-1.74792
-1.71671
-1.66328
-1.64007
-1.6935
-1.66328
-1.61083
-1.58762
-1.64007
-1.61083
-1.55937
-1.53616
-1.58762
-1.55937
-1.5089
-1.48569
-1.53616
-1.5089
-1.45942
-1.43621
-1.48569
-1.45942
-1.41092
-1.38771
-1.43621
-1.41092
-1.36341
-1.3402
-1.38771
-1.36341
-1.31689
-1.29368
-1.3402
-1.31689
-1.27136
-1.24815
-1.29368
-1.27136
-1.22682
-1.20361
-1.24815
-1.22682
-1.18326
-1.16005
-1.20361
-1.18326
-1.14069
-1.11748
-1.16005
-1.14069
-1.09911
-1.0759
-1.11748
-1.09911
-1.05851
-1.0353
-1.0759
-1.05851
-1.01891
-0.995698
-1.0353
-1.01891
-0.980289
-0.957079
-0.995698
-0.980289
-0.942657
-0.919448
-0.957079
-0.942657
-0.906014
-0.882804
-0.919448
-0.906014
-0.870358
-0.847148
-0.882804
-0.870358
-0.83569
-0.81248
-0.847148
-0.83569
-0.802009
-0.778799
-0.81248
-0.802009
-0.769316
-0.746106
-0.778799
-0.769316
-0.737611
-0.714401
-0.746106
-0.737611
-0.706893
-0.683683
-0.714401
-0.706893
-0.677163
-0.653953
-0.683683
-0.677163
-0.648421
-0.625211
-0.653953
-0.648421
-0.620666
-0.597456
-0.625211
-0.620666
-0.593899
-0.570689
-0.597456
-0.593899
-0.56812
-0.54491
-0.570689
-0.56812
-0.543328
-0.520118
-0.54491
-0.543328
-0.519524
-0.496314
-0.520118
-0.519524
-0.496708
-0.473498
-0.496314
-0.496708
-0.474879
-0.451669
-0.473498
-0.474879
-0.454038
-0.430828
-0.451669
-0.454038
-0.434184
-0.410974
-0.430828
-0.434184
-0.415319
-0.392109
-0.410974
-0.415319
-0.39744
-0.374231
-0.392109
-0.39744
-0.38055
-0.35734
-0.374231
-0.38055
-0.364647
-0.341437
-0.35734
-0.364647
-0.349732
-0.326522
-0.341437
-0.349732
-0.335804
-0.312595
-0.326522
-0.335804
-0.322865
-0.299655
-0.312595
-0.322865
-0.310912
-0.287702
-0.299655
-0.310912
-0.299948
-0.276738
-0.287702
-0.299948
-0.289971
-0.266761
-0.276738
-0.289971
-0.280982
-0.257772
-0.266761
-0.280982
-0.27298
-0.24977
-0.257772
-0.27298
-0.265966
-0.242756
-0.24977
-0.265966
-0.25994
-0.23673
-0.242756
-0.25994
-0.254901
-0.231691
-0.23673
-0.254901
-0.25085
-0.22764
-0.231691
-0.25085
-0.247787
-0.224577
-0.22764
-0.247787
-0.245711
-0.222501
-0.224577
-0.245711
-0.244623
-0.221413
-0.222501
-0.244623
-0.244523
-0.221313
-0.221413
-0.244523
-0.24541
-0.2222
-0.221313
-0.24541
-0.247285
-0.224075
-0.2222
-0.247285
-0.250148
-0.226938
-0.224075
-0.250148
-0.253998
-0.230788
-0.226938
-0.253998
-0.258836
-0.235626
-0.230788
-0.258836
-0.264661
-0.241452
-0.235626
-0.264661
-0.271475
-0.248265
-0.241452
-0.271475
-0.279276
-0.256066
-0.248265
-0.279276
-0.288064
-0.264854
-0.256066
-0.288064
-0.29784
-0.27463
-0.264854
-0.29784
-0.308604
-0.285394
-0.27463
-0.308604
-0.320356
-0.297146
-0.285394
-0.320356
-0.333095
-0.309885
-0.297146
-0.333095
-0.346821
-0.323612
-0.309885
-0.346821
-0.361536
-0.338326
-0.323612
-0.361536
-0.377238
-0.354028
-0.338326
-0.377238
-0.393928
-0.370718
-0.354028
-0.393928
-0.411605
-0.388395
-0.370718
-0.411605
-0.43027
-0.40706
-0.388395
-0.43027
-0.449923
-0.426713
-0.40706
-0.449923
-0.470563
-0.447354
-0.426713
-0.470563
-0.492191
-0.468982
-0.447354
-0.492191
-0.514807
-0.491597
-0.468982
-0.514807
-0.53841
-0.515201
-0.491597
-0.53841
-0.563001
-0.539792
-0.515201
-0.563001
-0.58858
-0.56537
-0.539792
-0.58858
-0.615146
-0.591937
-0.56537
-0.615146
-0.6427
-0.619491
-0.591937
-0.6427
-0.671242
-0.648032
-0.619491
-0.671242
-0.700771
-0.677561
-0.648032
-0.700771
-0.731288
-0.708078
-0.677561
-0.731288
-0.762793
-0.739583