# vtk DataFile Version 1.0
unstructured Grid
ASCII
DATASET UNSTRUCTURED_GRID
POINTS 23448 float 
0 0	 0.0
0.0222222 0	 0.0
0.0222222 0.0222222	 0.0
0 0.0222222	 0.0
0.0222222 0	 0.0
0.0444444 0	 0.0
0.0444444 0.0222222	 0.0
0.0222222 0.0222222	 0.0
0.0444444 0	 0.0
0.0666667 0	 0.0
0.0666667 0.0222222	 0.0
0.0444444 0.0222222	 0.0
0.0666667 0	 0.0
0.0888889 0	 0.0
0.0888889 0.0222222	 0.0
0.0666667 0.0222222	 0.0
0.0888889 0	 0.0
0.111111 0	 0.0
0.111111 0.0222222	 0.0
0.0888889 0.0222222	 0.0
0.111111 0	 0.0
0.133333 0	 0.0
0.133333 0.0222222	 0.0
0.111111 0.0222222	 0.0
0.133333 0	 0.0
0.155556 0	 0.0
0.155556 0.0222222	 0.0
0.133333 0.0222222	 0.0
0.155556 0	 0.0
0.177778 0	 0.0
0.177778 0.0222222	 0.0
0.155556 0.0222222	 0.0
0.177778 0	 0.0
0.2 0	 0.0
0.2 0.0222222	 0.0
0.177778 0.0222222	 0.0
0.2 0	 0.0
0.222222 0	 0.0
0.222222 0.0222222	 0.0
0.2 0.0222222	 0.0
0.222222 0	 0.0
0.244444 0	 0.0
0.244444 0.0222222	 0.0
0.222222 0.0222222	 0.0
0.244444 0	 0.0
0.266667 0	 0.0
0.266667 0.0222222	 0.0
0.244444 0.0222222	 0.0
0.266667 0	 0.0
0.288889 0	 0.0
0.288889 0.0222222	 0.0
0.266667 0.0222222	 0.0
0.288889 0	 0.0
0.311111 0	 0.0
0.311111 0.0222222	 0.0
0.288889 0.0222222	 0.0
0.311111 0	 0.0
0.333333 0	 0.0
0.333333 0.0222222	 0.0
0.311111 0.0222222	 0.0
0.333333 0	 0.0
0.355556 0	 0.0
0.355556 0.0222222	 0.0
0.333333 0.0222222	 0.0
0.355556 0	 0.0
0.377778 0	 0.0
0.377778 0.0222222	 0.0
0.355556 0.0222222	 0.0
0.377778 0	 0.0
0.4 0	 0.0
0.4 0.0222222	 0.0
0.377778 0.0222222	 0.0
0.4 0	 0.0
0.422222 0	 0.0
0.422222 0.0222222	 0.0
0.4 0.0222222	 0.0
0.422222 0	 0.0
0.444444 0	 0.0
0.444444 0.0222222	 0.0
0.422222 0.0222222	 0.0
0.444444 0	 0.0
0.466667 0	 0.0
0.466667 0.0222222	 0.0
0.444444 0.0222222	 0.0
0.466667 0	 0.0
0.488889 0	 0.0
0.488889 0.0222222	 0.0
0.466667 0.0222222	 0.0
0.488889 0	 0.0
0.511111 0	 0.0
0.511111 0.0222222	 0.0
0.488889 0.0222222	 0.0
0.511111 0	 0.0
0.533333 0	 0.0
0.533333 0.0222222	 0.0
0.511111 0.0222222	 0.0
0.533333 0	 0.0
0.555556 0	 0.0
0.555556 0.0222222	 0.0
0.533333 0.0222222	 0.0
0.555556 0	 0.0
0.577778 0	 0.0
0.577778 0.0222222	 0.0
0.555556 0.0222222	 0.0
0.577778 0	 0.0
0.6 0	 0.0
0.6 0.0222222	 0.0
0.577778 0.0222222	 0.0
0.6 0	 0.0
0.622222 0	 0.0
0.622222 0.0222222	 0.0
0.6 0.0222222	 0.0
0.622222 0	 0.0
0.644444 0	 0.0
0.644444 0.0222222	 0.0
0.622222 0.0222222	 0.0
0.644444 0	 0.0
0.666667 0	 0.0
0.666667 0.0222222	 0.0
0.644444 0.0222222	 0.0
0.666667 0	 0.0
0.688889 0	 0.0
0.688889 0.0222222	 0.0
0.666667 0.0222222	 0.0
0.688889 0	 0.0
0.711111 0	 0.0
0.711111 0.0222222	 0.0
0.688889 0.0222222	 0.0
0.711111 0	 0.0
0.733333 0	 0.0
0.733333 0.0222222	 0.0
0.711111 0.0222222	 0.0
0.733333 0	 0.0
0.755556 0	 0.0
0.755556 0.0222222	 0.0
0.733333 0.0222222	 0.0
0.755556 0	 0.0
0.777778 0	 0.0
0.777778 0.0222222	 0.0
0.755556 0.0222222	 0.0
0.777778 0	 0.0
0.8 0	 0.0
0.8 0.0222222	 0.0
0.777778 0.0222222	 0.0
0.8 0	 0.0
0.822222 0	 0.0
0.822222 0.0222222	 0.0
0.8 0.0222222	 0.0
0.822222 0	 0.0
0.844444 0	 0.0
0.844444 0.0222222	 0.0
0.822222 0.0222222	 0.0
0.844444 0	 0.0
0.866667 0	 0.0
0.866667 0.0222222	 0.0
0.844444 0.0222222	 0.0
0.866667 0	 0.0
0.888889 0	 0.0
0.888889 0.0222222	 0.0
0.866667 0.0222222	 0.0
0.888889 0	 0.0
0.911111 0	 0.0
0.911111 0.0222222	 0.0
0.888889 0.0222222	 0.0
0.911111 0	 0.0
0.933333 0	 0.0
0.933333 0.0222222	 0.0
0.911111 0.0222222	 0.0
0.933333 0	 0.0
0.955556 0	 0.0
0.955556 0.0222222	 0.0
0.933333 0.0222222	 0.0
0.955556 0	 0.0
0.977778 0	 0.0
0.977778 0.0222222	 0.0
0.955556 0.0222222	 0.0
0.977778 0	 0.0
1 0	 0.0
1 0.0222222	 0.0
0.977778 0.0222222	 0.0
1 0	 0.0
1.02222 0	 0.0
1.02222 0.0222222	 0.0
1 0.0222222	 0.0
1.02222 0	 0.0
1.04444 0	 0.0
1.04444 0.0222222	 0.0
1.02222 0.0222222	 0.0
1.04444 0	 0.0
1.06667 0	 0.0
1.06667 0.0222222	 0.0
1.04444 0.0222222	 0.0
1.06667 0	 0.0
1.08889 0	 0.0
1.08889 0.0222222	 0.0
1.06667 0.0222222	 0.0
1.08889 0	 0.0
1.11111 0	 0.0
1.11111 0.0222222	 0.0
1.08889 0.0222222	 0.0
1.11111 0	 0.0
1.13333 0	 0.0
1.13333 0.0222222	 0.0
1.11111 0.0222222	 0.0
1.13333 0	 0.0
1.15556 0	 0.0
1.15556 0.0222222	 0.0
1.13333 0.0222222	 0.0
1.15556 0	 0.0
1.17778 0	 0.0
1.17778 0.0222222	 0.0
1.15556 0.0222222	 0.0
1.17778 0	 0.0
1.2 0	 0.0
1.2 0.0222222	 0.0
1.17778 0.0222222	 0.0
1.2 0	 0.0
1.22222 0	 0.0
1.22222 0.0222222	 0.0
1.2 0.0222222	 0.0
1.22222 0	 0.0
1.24444 0	 0.0
1.24444 0.0222222	 0.0
1.22222 0.0222222	 0.0
1.24444 0	 0.0
1.26667 0	 0.0
1.26667 0.0222222	 0.0
1.24444 0.0222222	 0.0
1.26667 0	 0.0
1.28889 0	 0.0
1.28889 0.0222222	 0.0
1.26667 0.0222222	 0.0
1.28889 0	 0.0
1.31111 0	 0.0
1.31111 0.0222222	 0.0
1.28889 0.0222222	 0.0
1.31111 0	 0.0
1.33333 0	 0.0
1.33333 0.0222222	 0.0
1.31111 0.0222222	 0.0
1.33333 0	 0.0
1.35556 0	 0.0
1.35556 0.0222222	 0.0
1.33333 0.0222222	 0.0
1.35556 0	 0.0
1.37778 0	 0.0
1.37778 0.0222222	 0.0
1.35556 0.0222222	 0.0
1.37778 0	 0.0
1.4 0	 0.0
1.4 0.0222222	 0.0
1.37778 0.0222222	 0.0
1.4 0	 0.0
1.42222 0	 0.0
1.42222 0.0222222	 0.0
1.4 0.0222222	 0.0
1.42222 0	 0.0
1.44444 0	 0.0
1.44444 0.0222222	 0.0
1.42222 0.0222222	 0.0
1.44444 0	 0.0
1.46667 0	 0.0
1.46667 0.0222222	 0.0
1.44444 0.0222222	 0.0
1.46667 0	 0.0
1.48889 0	 0.0
1.48889 0.0222222	 0.0
1.46667 0.0222222	 0.0
1.48889 0	 0.0
1.51111 0	 0.0
1.51111 0.0222222	 0.0
1.48889 0.0222222	 0.0
1.51111 0	 0.0
1.53333 0	 0.0
1.53333 0.0222222	 0.0
1.51111 0.0222222	 0.0
1.53333 0	 0.0
1.55556 0	 0.0
1.55556 0.0222222	 0.0
1.53333 0.0222222	 0.0
1.55556 0	 0.0
1.57778 0	 0.0
1.57778 0.0222222	 0.0
1.55556 0.0222222	 0.0
1.57778 0	 0.0
1.6 0	 0.0
1.6 0.0222222	 0.0
1.57778 0.0222222	 0.0
1.6 0	 0.0
1.62222 0	 0.0
1.62222 0.0222222	 0.0
1.6 0.0222222	 0.0
1.62222 0	 0.0
1.64444 0	 0.0
1.64444 0.0222222	 0.0
1.62222 0.0222222	 0.0
1.64444 0	 0.0
1.66667 0	 0.0
1.66667 0.0222222	 0.0
1.64444 0.0222222	 0.0
1.66667 0	 0.0
1.68889 0	 0.0
1.68889 0.0222222	 0.0
1.66667 0.0222222	 0.0
1.68889 0	 0.0
1.71111 0	 0.0
1.71111 0.0222222	 0.0
1.68889 0.0222222	 0.0
1.71111 0	 0.0
1.73333 0	 0.0
1.73333 0.0222222	 0.0
1.71111 0.0222222	 0.0
1.73333 0	 0.0
1.75556 0	 0.0
1.75556 0.0222222	 0.0
1.73333 0.0222222	 0.0
1.75556 0	 0.0
1.77778 0	 0.0
1.77778 0.0222222	 0.0
1.75556 0.0222222	 0.0
1.77778 0	 0.0
1.8 0	 0.0
1.8 0.0222222	 0.0
1.77778 0.0222222	 0.0
1.8 0	 0.0
1.82222 0	 0.0
1.82222 0.0222222	 0.0
1.8 0.0222222	 0.0
1.82222 0	 0.0
1.84444 0	 0.0
1.84444 0.0222222	 0.0
1.82222 0.0222222	 0.0
1.84444 0	 0.0
1.86667 0	 0.0
1.86667 0.0222222	 0.0
1.84444 0.0222222	 0.0
1.86667 0	 0.0
1.88889 0	 0.0
1.88889 0.0222222	 0.0
1.86667 0.0222222	 0.0
1.88889 0	 0.0
1.91111 0	 0.0
1.91111 0.0222222	 0.0
1.88889 0.0222222	 0.0
1.91111 0	 0.0
1.93333 0	 0.0
1.93333 0.0222222	 0.0
1.91111 0.0222222	 0.0
1.93333 0	 0.0
1.95556 0	 0.0
1.95556 0.0222222	 0.0
1.93333 0.0222222	 0.0
1.95556 0	 0.0
1.97778 0	 0.0
1.97778 0.0222222	 0.0
1.95556 0.0222222	 0.0
1.97778 0	 0.0
2 0	 0.0
2 0.0222222	 0.0
1.97778 0.0222222	 0.0
2 0	 0.0
2.02222 0	 0.0
2.02222 0.0222222	 0.0
2 0.0222222	 0.0
2.02222 0	 0.0
2.04444 0	 0.0
2.04444 0.0222222	 0.0
2.02222 0.0222222	 0.0
2.04444 0	 0.0
2.06667 0	 0.0
2.06667 0.0222222	 0.0
2.04444 0.0222222	 0.0
2.06667 0	 0.0
2.08889 0	 0.0
2.08889 0.0222222	 0.0
2.06667 0.0222222	 0.0
2.08889 0	 0.0
2.11111 0	 0.0
2.11111 0.0222222	 0.0
2.08889 0.0222222	 0.0
2.11111 0	 0.0
2.13333 0	 0.0
2.13333 0.0222222	 0.0
2.11111 0.0222222	 0.0
2.13333 0	 0.0
2.15556 0	 0.0
2.15556 0.0222222	 0.0
2.13333 0.0222222	 0.0
2.15556 0	 0.0
2.17778 0	 0.0
2.17778 0.0222222	 0.0
2.15556 0.0222222	 0.0
2.17778 0	 0.0
2.2 0	 0.0
2.2 0.0222222	 0.0
2.17778 0.0222222	 0.0
2.2 0	 0.0
2.22222 0	 0.0
2.22222 0.0222222	 0.0
2.2 0.0222222	 0.0
2.22222 0	 0.0
2.24444 0	 0.0
2.24444 0.0222222	 0.0
2.22222 0.0222222	 0.0
2.24444 0	 0.0
2.26667 0	 0.0
2.26667 0.0222222	 0.0
2.24444 0.0222222	 0.0
2.26667 0	 0.0
2.28889 0	 0.0
2.28889 0.0222222	 0.0
2.26667 0.0222222	 0.0
2.28889 0	 0.0
2.31111 0	 0.0
2.31111 0.0222222	 0.0
2.28889 0.0222222	 0.0
2.31111 0	 0.0
2.33333 0	 0.0
2.33333 0.0222222	 0.0
2.31111 0.0222222	 0.0
2.33333 0	 0.0
2.35556 0	 0.0
2.35556 0.0222222	 0.0
2.33333 0.0222222	 0.0
2.35556 0	 0.0
2.37778 0	 0.0
2.37778 0.0222222	 0.0
2.35556 0.0222222	 0.0
2.37778 0	 0.0
2.4 0	 0.0
2.4 0.0222222	 0.0
2.37778 0.0222222	 0.0
2.4 0	 0.0
2.42222 0	 0.0
2.42222 0.0222222	 0.0
2.4 0.0222222	 0.0
2.42222 0	 0.0
2.44444 0	 0.0
2.44444 0.0222222	 0.0
2.42222 0.0222222	 0.0
2.44444 0	 0.0
2.46667 0	 0.0
2.46667 0.0222222	 0.0
2.44444 0.0222222	 0.0
2.46667 0	 0.0
2.48889 0	 0.0
2.48889 0.0222222	 0.0
2.46667 0.0222222	 0.0
2.48889 0	 0.0
2.51111 0	 0.0
2.51111 0.0222222	 0.0
2.48889 0.0222222	 0.0
2.51111 0	 0.0
2.53333 0	 0.0
2.53333 0.0222222	 0.0
2.51111 0.0222222	 0.0
2.53333 0	 0.0
2.55556 0	 0.0
2.55556 0.0222222	 0.0
2.53333 0.0222222	 0.0
2.55556 0	 0.0
2.57778 0	 0.0
2.57778 0.0222222	 0.0
2.55556 0.0222222	 0.0
2.57778 0	 0.0
2.6 0	 0.0
2.6 0.0222222	 0.0
2.57778 0.0222222	 0.0
2.6 0	 0.0
2.62222 0	 0.0
2.62222 0.0222222	 0.0
2.6 0.0222222	 0.0
2.62222 0	 0.0
2.64444 0	 0.0
2.64444 0.0222222	 0.0
2.62222 0.0222222	 0.0
2.64444 0	 0.0
2.66667 0	 0.0
2.66667 0.0222222	 0.0
2.64444 0.0222222	 0.0
2.66667 0	 0.0
2.68889 0	 0.0
2.68889 0.0222222	 0.0
2.66667 0.0222222	 0.0
2.68889 0	 0.0
2.71111 0	 0.0
2.71111 0.0222222	 0.0
2.68889 0.0222222	 0.0
2.71111 0	 0.0
2.73333 0	 0.0
2.73333 0.0222222	 0.0
2.71111 0.0222222	 0.0
2.73333 0	 0.0
2.75556 0	 0.0
2.75556 0.0222222	 0.0
2.73333 0.0222222	 0.0
2.75556 0	 0.0
2.77778 0	 0.0
2.77778 0.0222222	 0.0
2.75556 0.0222222	 0.0
2.77778 0	 0.0
2.8 0	 0.0
2.8 0.0222222	 0.0
2.77778 0.0222222	 0.0
2.8 0	 0.0
2.82222 0	 0.0
2.82222 0.0222222	 0.0
2.8 0.0222222	 0.0
2.82222 0	 0.0
2.84444 0	 0.0
2.84444 0.0222222	 0.0
2.82222 0.0222222	 0.0
2.84444 0	 0.0
2.86667 0	 0.0
2.86667 0.0222222	 0.0
2.84444 0.0222222	 0.0
2.86667 0	 0.0
2.88889 0	 0.0
2.88889 0.0222222	 0.0
2.86667 0.0222222	 0.0
2.88889 0	 0.0
2.91111 0	 0.0
2.91111 0.0222222	 0.0
2.88889 0.0222222	 0.0
2.91111 0	 0.0
[...]
POINT_DATA 23448
SCALARS levelset_first float
LOOKUP_TABLE default
-3.76672
-3.6847
-3.65853
-3.74055
-3.6847
-3.60367
-3.5775
-3.65853
-3.60367
-3.52363
-3.49745
-3.5775
-3.52363
-3.44457
-3.4184
-3.49745
-3.44457
-3.3665
-3.34033
-3.4184
-3.3665
-3.28942
-3.26325
-3.34033
-3.28942
-3.21333
-3.18716
-3.26325
-3.21333
-3.13822
-3.11205
-3.18716
-3.13822
-3.06411
-3.03793
-3.11205
-3.06411
-2.99098
-2.9648
-3.03793
-2.99098
-2.91883
-2.89266
-2.9648
-2.91883
-2.84768
-2.82151
-2.89266
-2.84768
-2.77751
-2.75134
-2.82151
-2.77751
-2.70833
-2.68216
-2.75134
-2.70833
-2.64014
-2.61397
-2.68216
-2.64014
-2.57294
-2.54677
-2.61397
-2.57294
-2.50672
-2.48055
-2.54677
-2.50672
-2.44149
-2.41532
-2.48055
-2.44149
-2.37725
-2.35108
-2.41532
-2.37725
-2.314
-2.28783
-2.35108
-2.314
-2.25173
-2.22556
-2.28783
-2.25173
-2.19045
-2.16428
-2.22556
-2.19045
-2.13016
-2.10399
-2.16428
-2.13016
-2.07086
-2.04469
-2.10399
-2.07086
-2.01255
-1.98637
-2.04469
-2.01255
-1.95522
-1.92905
-1.98637
-1.95522
-1.89888
-1.87271
-1.92905
-1.89888
-1.84353
-1.81735
-1.87271
-1.84353
-1.78916
-1.76299
-1.81735
-1.78916
-1.73579
-1.70961
-1.76299
-1.73579
-1.6834
-1.65722
-1.70961
-1.6834
-1.632
-1.60582
-1.65722
-1.632
-1.58158
-1.55541
-1.60582
-1.58158
-1.53216
-1.50598
-1.55541
-1.53216
-1.48372
-1.45754
-1.50598
-1.48372
-1.43627
-1.41009
-1.45754
-1.43627
-1.3898
-1.36363
-1.41009
-1.3898
-1.34433
-1.31815
-1.36363
-1.34433
-1.29984
-1.27367
-1.31815
-1.29984
-1.25634
-1.23017
-1.27367
-1.25634
-1.21383
-1.18765
-1.23017
-1.21383
-1.1723
-1.14613
-1.18765
-1.1723
-1.13176
-1.10559
-1.14613
-1.13176
-1.09221
-1.06604
-1.10559
-1.09221
-1.05365
-1.02748
-1.06604
-1.05365
-1.01608
-0.989904
-1.02748
-1.01608
-0.979491
-0.953318
-0.989904
-0.979491
-0.943891
-0.917719
-0.953318
-0.943891
-0.90928
-0.883107
-0.917719
-0.90928
-0.875656
-0.849483
-0.883107
-0.875656
-0.84302
-0.816847
-0.849483
-0.84302
-0.811372
-0.785199
-0.816847
-0.811372
-0.780711
-0.754538
-0.785199
-0.780711
-0.751038
-0.724865
-0.754538
-0.751038
-0.722352
-0.696179
-0.724865
-0.722352
-0.694654
-0.668482
-0.696179
-0.694654
-0.667944
-0.641771
-0.668482
-0.667944
-0.642222
-0.616049
-0.641771
-0.642222
-0.617487
-0.591314
-0.616049
-0.617487
-0.59374
-0.567567
-0.591314
-0.59374
-0.57098
-0.544807
-0.567567
-0.57098
-0.549208
-0.523035
-0.544807
-0.549208
-0.528424
-0.502251
-0.523035
-0.528424
-0.508627
-0.482454
-0.502251
-0.508627
-0.489818
-0.463646
-0.482454
-0.489818
-0.471997
-0.445824
-0.463646
-0.471997
-0.455163
-0.428991
-0.445824
-0.455163
-0.439317
-0.413145
-0.428991
-0.439317
-0.424459
-0.398286
-0.413145
-0.424459
-0.410588
-0.384416
-0.398286
-0.410588
-0.397705
-0.371533
-0.384416
-0.397705
-0.38581
-0.359637
-0.371533
-0.38581
-0.374902
-0.348729
-0.359637
-0.374902
-0.364982
-0.338809
-0.348729
-0.364982
-0.35605
-0.329877
-0.338809
-0.35605
-0.348105
-0.321932
-0.329877
-0.348105
-0.341148
-0.314975
-0.321932
-0.341148
-0.335179
-0.309006
-0.314975
-0.335179
-0.330197
-0.304024
-0.309006
-0.330197
-0.326203
-0.30003
-0.304024
-0.326203
-0.323196
-0.297023
-0.30003
-0.323196
-0.321177
-0.295005
-0.297023
-0.321177
-0.320146
-0.293973
-0.295005
-0.320146
-0.320103
-0.29393
-0.293973
-0.320103
-0.321047
-0.294874
-0.29393
-0.321047
-0.322979
-0.296806
-0.294874
-0.322979
-0.325898
-0.299725
-0.296806
-0.325898
-0.329805
-0.303632
-0.299725
-0.329805
-0.3347
-0.308527
-0.303632
-0.3347
-0.340582
-0.314409
-0.308527
-0.340582
-0.347452
-0.32128
-0.314409
-0.347452
-0.35531
-0.329137
-0.32128
-0.35531
-0.364155
-0.337983
-0.329137
-0.364155
-0.373988
-0.347816
-0.337983
-0.373988
-0.384809
-0.358636
-0.347816
-0.384809
-0.396617
-0.370445
-0.358636
-0.396617
-0.409413
-0.383241
-0.370445
-0.409413
-0.423197
-0.397024
-0.383241
-0.423197
-0.437968
-0.411796
-0.397024
-0.437968
-0.453727
-0.427555
-0.411796
-0.453727
-0.470474
-0.444301
-0.427555
-0.470474
-0.488208
-0.462035
-0.444301
-0.488208
-0.50693
-0.480757
-0.462035
-0.50693
-0.52664
-0.500467
-0.480757
-0.52664
-0.547337
-0.521164
-0.500467
-0.547337
-0.569022
-0.542849
-0.521164
-0.569022
-0.591694
-0.565522
-0.542849
-0.591694
-0.615355
-0.589182
-0.565522
-0.615355
-0.640002
-0.61383
-0.589182
-0.640002
-0.665638
-0.639465
-0.61383
-0.665638
-0.692261
-0.666088
-0.639465
-0.692261
-0.719872
-0.693699
-0.666088
-0.719872
-0.74847
-0.722297
-0.693699
-0.74847
-0.778056
-0.751884
-0.722297
-0.778056
-0.80863
-0.782457
-0.751884
-0.80863
-0.840192
-0.814019
-0.782457
-0.840192
-0.872741
-0.846568
-0.814019
-0.872741
-0.906277
-0.880105
-0.846568
-0.906277
-0.940802
-0.914629
-0.880105
-0.940802
-0.976314
-0.950141
-0.914629
-0.976314
-1.01281
-0.986641
-0.950141
-1.01281
-1.0503
-1.02413
-0.986641
-1.0503
-1.08878
-1.0626
-1.02413
-1.08878
-1.12824
-1.10207
-1.0626
-1.12824
-1.16869
-1.14252
-1.10207
-1.16869
-1.21013
-1.18395
-1.14252
-1.21013
-1.25255
-1.22638
-1.18395
-1.25255
-1.29597
-1.26979
-1.22638
-1.29597
-1.34037
-1.31419
-1.26979
-1.34037
-1.38576
-1.35958
-1.31419
-1.38576
-1.43213
-1.40596
-1.35958
-1.43213
-1.4795
-1.45332
-1.40596
-1.4795
-1.52785
-1.50167
-1.45332
-1.52785
-1.57719
-1.55101
-1.50167
-1.57719
-1.62751
-1.60134
-1.55101
-3.74055
-3.65853
-3.63334
-3.71536
-3.65853
-3.5775
-3.55231
-3.63334
-3.5775
-3.49745
-3.47227
-3.55231
-3.49745
-3.4184
-3.39321
-3.47227
-3.4184
-3.34033
-3.31515
-3.39321
-3.34033
-3.26325
-3.23806
-3.31515
-3.26325
-3.18716
-3.16197
-3.23806
-3.18716
-3.11205
-3.08687
-3.16197
-3.11205
-3.03793
-3.01275
-3.08687
-3.03793
-2.9648
-2.93962
-3.01275
-2.9648
-2.89266
-2.86748
-2.93962
-2.89266
-2.82151
-2.79632
-2.86748
-2.82151
-2.75134
-2.72616
-2.79632
-2.75134
-2.68216
-2.65698
-2.72616
-2.68216
-2.61397
-2.58878
-2.65698
-2.61397
-2.54677
-2.52158
-2.58878
-2.54677
-2.48055
-2.45536
-2.52158
-2.48055
-2.41532
-2.39014
-2.45536
-2.41532
-2.35108
-2.32589
-2.39014
-2.35108
-2.28783
-2.26264
-2.32589
-2.28783
-2.22556
-2.20038
-2.26264
-2.22556
-2.16428
-2.1391
-2.20038
-2.16428
-2.10399
-2.07881
-2.1391
-2.10399
-2.04469
-2.0195
-2.07881
-2.04469
-1.98637
-1.96119
-2.0195
-1.98637
-1.92905
-1.90386
-1.96119
-1.92905
-1.87271
-1.84752
-1.90386
-1.87271
-1.81735
-1.79217
-1.84752
-1.81735
-1.76299
-1.7378
-1.79217
-1.76299
-1.70961
-1.68443
-1.7378
-1.70961
-1.65722
-1.63204
-1.68443
-1.65722
-1.60582
-1.58064
-1.63204
-1.60582
-1.55541
-1.53022
-1.58064
-1.55541
-1.50598
-1.4808
-1.53022
-1.50598
-1.45754
-1.43236
-1.4808
-1.45754
-1.41009
-1.38491
-1.43236
-1.41009
-1.36363
-1.33844
-1.38491
-1.36363
-1.31815
-1.29297
-1.33844
-1.31815
-1.27367
-1.24848
-1.29297
-1.27367
-1.23017
-1.20498
-1.24848
-1.23017
-1.18765
-1.16247
-1.20498
-1.18765
-1.14613
-1.12094
-1.16247
-1.14613
-1.10559
-1.08041
-1.12094
-1.10559
-1.06604
-1.04086
-1.08041
-1.06604
-1.02748
-1.00229
-1.04086
-1.02748
-0.989904
-0.964719
-1.00229
-0.989904
-0.953318
-0.928133
-0.964719
-0.953318
-0.917719
-0.892533
-0.928133
-0.917719
-0.883107
-0.857922
-0.892533
-0.883107
-0.849483
-0.824298
-0.857922
-0.849483
-0.816847
-0.791662
-0.824298
-0.816847
-0.785199
-0.760014
-0.791662
-0.785199
-0.754538
-0.729353
-0.760014
-0.754538
-0.724865
-0.69968
-0.729353
-0.724865
-0.696179
-0.670994
-0.69968
-0.696179
-0.668482
-0.643296
-0.670994
-0.668482
-0.641771
-0.616586
-0.643296
-0.641771
-0.616049
-0.590864
-0.616586
-0.616049
-0.591314
-0.566129
-0.590864
-0.591314
-0.567567
-0.542382
-0.566129
-0.567567
-0.544807
-0.519622
-0.542382
-0.544807
-0.523035
-0.49785
-0.519622
-0.523035
-0.502251
-0.477066
-0.49785
-0.502251
-0.482454
-0.457269
-0.477066
-0.482454
-0.463646
-0.43846
-0.457269
-0.463646
-0.445824
-0.420639
-0.43846
-0.445824
-0.428991
-0.403805
-0.420639
-0.428991
-0.413145
-0.387959
-0.403805
-0.413145
-0.398286
-0.373101
-0.387959
-0.398286
-0.384416
-0.35923
-0.373101
-0.384416
-0.371533
-0.346347
-0.35923
-0.371533
-0.359637
-0.334452
-0.346347
-0.359637
-0.348729
-0.323544
-0.334452
-0.348729
-0.338809
-0.313624
-0.323544
-0.338809
-0.329877
-0.304692
-0.313624
-0.329877
-0.321932
-0.296747
-0.304692
-0.321932
-0.314975
-0.28979
-0.296747
-0.314975
-0.309006
-0.283821
-0.28979
-0.309006
-0.304024
-0.278839
-0.283821
-0.304024
-0.30003
-0.274845
-0.278839
-0.30003
-0.297023
-0.271838
-0.274845
-0.297023
-0.295005
-0.269819
-0.271838
-0.295005
-0.293973
-0.268788
-0.269819
-0.293973
-0.29393
-0.268745
-0.268788
-0.29393
-0.294874
-0.269689
-0.268745
-0.294874
-0.296806
-0.271621
-0.269689
-0.296806
-0.299725
-0.27454
-0.271621
-0.299725
-0.303632
-0.278447
-0.27454
-0.303632
-0.308527
-0.283342
-0.278447
-0.308527
-0.314409
-0.289224
-0.283342
-0.314409
-0.32128
-0.296094
-0.289224
-0.32128
-0.329137
-0.303952
-0.296094
-0.329137
-0.337983
-0.312797
-0.303952
-0.337983
-0.347816
-0.32263
-0.312797
-0.347816
-0.358636
-0.333451
-0.32263
-0.358636
-0.370445
-0.345259
-0.333451
-0.370445
-0.383241
-0.358055
-0.345259
-0.383241
-0.397024
-0.371839
-0.358055
-0.397024
-0.411796
-0.38661
-0.371839
-0.411796
-0.427555
-0.402369
-0.38661
-0.427555
-0.444301
-0.419116
-0.402369
-0.444301
-0.462035
-0.43685
-0.419116
-0.462035
-0.480757
-0.455572
-0.43685
-0.480757
-0.500467
-0.475282
-0.455572
-0.500467
-0.521164
-0.495979
-0.475282
-0.521164
-0.542849
-0.517664
-0.495979
-0.542849
-0.565522
-0.540336
-0.517664
-0.565522
-0.589182
-0.563997
-0.540336
-0.589182
-0.61383
-0.588644
-0.563997
-0.61383
-0.639465
-0.61428
-0.588644
-0.639465
-0.666088
-0.640903
-0.61428
-0.666088
-0.693699
-0.668514
-0.640903
-0.693699
-0.722297
-0.697112
-0.668514
-0.722297
-0.751884
-0.726698
-0.697112
-0.751884
-0.782457
-0.757272
-0.726698
-0.782457
-0.814019
-0.788834
-0.757272
-0.814019
-0.846568
-0.821383
-0.788834
-0.846568
-0.880105
-0.854919
-0.821383
-0.880105
-0.914629
-0.889444
-0.854919
-0.914629
-0.950141
-0.924956
-0.889444
-0.950141
-0.986641
-0.961456
-0.924956
-0.986641
-1.02413
-0.998943
-0.961456
-1.02413
-1.0626
-1.03742
-0.998943
-1.0626
-1.10207
-1.07688
-1.03742
-1.10207
-1.14252
-1.11733
-1.07688
-1.14252
-1.18395
-1.15877
-1.11733
-1.18395
-1.22638
-1.20119
-1.15877
-1.22638
-1.26979
-1.24461
-1.20119
-1.26979
-1.31419
-1.28901
-1.24461
-1.31419
-1.35958
-1.3344
-1.28901
-1.35958
-1.40596
-1.38077
-1.3344
-1.40596
-1.45332
-1.42814
-1.38077
-1.45332
-1.50167
-1.47649
-1.42814
-1.50167
-1.55101
-1.52583
-1.47649
-1.55101
-1.60134
-1.57615
-1.52583
-3.71536
-3.63334
-3.60915
-3.69117
-3.63334
-3.55231
-3.52812
-3.60915
-3.55231
-3.47227
-3.44807
-3.52812
-3.47227
-3.39321
-3.36902
-3.44807
-3.39321
-3.31515
-3.29095
-3.36902
-3.31515
-3.23806
-3.21387
-3.29095
-3.23806
-3.16197
-3.13777
-3.21387
-3.16197
-3.08687
-3.06267
-3.13777
-3.08687
-3.01275
-2.98855
-3.06267
-3.01275
-2.93962
-2.91542
-2.98855
-2.93962
-2.86748
-2.84328
-2.91542
-2.86748
-2.79632
-2.77212
-2.84328
-2.79632
-2.72616
-2.70196
-2.77212
-2.72616
-2.65698
-2.63278
-2.70196
-2.65698
-2.58878
-2.56459
-2.63278
-2.58878
-2.52158
-2.49738
-2.56459
-2.52158
-2.45536
-2.43117
-2.49738
-2.45536
-2.39014
-2.36594
-2.43117
-2.39014
-2.32589
-2.3017
-2.36594
-2.32589
-2.26264
-2.23844
-2.3017
-2.26264
-2.20038
-2.17618
-2.23844
-2.20038
-2.1391
-2.1149
-2.17618
-2.1391
-2.07881
-2.05461
-2.1149
-2.07881
-2.0195
-1.99531
-2.05461
-2.0195
-1.96119
-1.93699
-1.99531
-1.96119
-1.90386
-1.87966
-1.93699
-1.90386
-1.84752
-1.82332
-1.87966
-1.84752
-1.79217
-1.76797
-1.82332
-1.79217
-1.7378
-1.71361
-1.76797
-1.7378
-1.68443
-1.66023
-1.71361
-1.68443
-1.63204
-1.60784
-1.66023
-1.63204
-1.58064
-1.55644
-1.60784
-1.58064
-1.53022
-1.50603
-1.55644
-1.53022
-1.4808
-1.4566
-1.50603
-1.4808
-1.43236
-1.40816
-1.4566
-1.43236
-1.38491
-1.36071
-1.40816
-1.38491
-1.33844
-1.31425
-1.36071
-1.33844
-1.29297
-1.26877
-1.31425
-1.29297
-1.24848
-1.22428
-1.26877
-1.24848
-1.20498
-1.18078
-1.22428
-1.20498
-1.16247
-1.13827
-1.18078
-1.16247
-1.12094
-1.09675
-1.13827
-1.12094
-1.08041
-1.05621
-1.09675
-1.08041
-1.04086
-1.01666
-1.05621
-1.04086
-1.00229
-0.978096
-1.01666
-1.00229
-0.964719
-0.940522
-0.978096
-0.964719
-0.928133
-0.903935
-0.940522
-0.928133
-0.892533
-0.868336
-0.903935
-0.892533
-0.857922
-0.833724
-0.868336
-0.857922
-0.824298
-0.800101
-0.833724
-0.824298
-0.791662
-0.767465
-0.800101
-0.791662
-0.760014
-0.735816
-0.767465
-0.760014
-0.729353
-0.705155
-0.735816
-0.729353
-0.69968
-0.675482
-0.705155
-0.69968
-0.670994
-0.646797
-0.675482
-0.670994
-0.643296
-0.619099
-0.646797
-0.643296
-0.616586
-0.592389
-0.619099
-0.616586
-0.590864
-0.566666
-0.592389
-0.590864
-0.566129
-0.541931
-0.566666
-0.566129
-0.542382
-0.518184
-0.541931
-0.542382
-0.519622
-0.495425
-0.518184
-0.519622
-0.49785
-0.473653
-0.495425
-0.49785
-0.477066
-0.452868
-0.473653
-0.477066
-0.457269
-0.433072
-0.452868
-0.457269
-0.43846
-0.414263
-0.433072
-0.43846
-0.420639
-0.396442
-0.414263
-0.420639
-0.403805
-0.379608
-0.396442
-0.403805
-0.387959
-0.363762
-0.379608
-0.387959
-0.373101
-0.348904
-0.363762
-0.373101
-0.35923
-0.335033
-0.348904
-0.35923
-0.346347
-0.32215
-0.335033
-0.346347
-0.334452
-0.310254
-0.32215
-0.334452
-0.323544
-0.299347
-0.310254
-0.323544
-0.313624
-0.289427
-0.299347
-0.313624
-0.304692
-0.280494
-0.289427
-0.304692
-0.296747
-0.27255
-0.280494
-0.296747
-0.28979
-0.265592
-0.27255
-0.28979
-0.283821
-0.259623
-0.265592
-0.283821
-0.278839
-0.254641
-0.259623
-0.278839
-0.274845
-0.250647
-0.254641
-0.274845
-0.271838
-0.247641
-0.250647
-0.271838
-0.269819
-0.245622
-0.247641
-0.269819
-0.268788
-0.244591
-0.245622
-0.268788
-0.268745
-0.244547
-0.244591
-0.268745
-0.269689
-0.245491
-0.244547
-0.269689
-0.271621
-0.247423
-0.245491
-0.271621
-0.27454
-0.250342
-0.247423
-0.27454
-0.278447
-0.25425
-0.250342
-0.278447
-0.283342
-0.259144
-0.25425
-0.283342
-0.289224
-0.265027
-0.259144
-0.289224
-0.296094
-0.271897
-0.265027
-0.296094
-0.303952
-0.279755
-0.271897
-0.303952
-0.312797
-0.2886
-0.279755
-0.312797
-0.32263
-0.298433
-0.2886
-0.32263
-0.333451
-0.309254
-0.298433
-0.333451
-0.345259
-0.321062
-0.309254
-0.345259
-0.358055
-0.333858
-0.321062
-0.358055
-0.371839
-0.347642
-0.333858
-0.371839
-0.38661
-0.362413
-0.347642
-0.38661
-0.402369
-0.378172
-0.362413
-0.402369
-0.419116
-0.394918
-0.378172
-0.419116
-0.43685
-0.412653
-0.394918
-0.43685
-0.455572
-0.431375
-0.412653
-0.455572
-0.475282
-0.451084
-0.431375
-0.475282
-0.495979
-0.471781
-0.451084
-0.495979
-0.517664
-0.493466
-0.471781
-0.517664
-0.540336
-0.516139
-0.493466
-0.540336
-0.563997
-0.539799
-0.516139
-0.563997
-0.588644
-0.564447
-0.539799
-0.588644
-0.61428
-0.590082
-0.564447
-0.61428
-0.640903
-0.616705
-0.590082
-0.640903
-0.668514
-0.644316
-0.616705
-0.668514
-0.697112
-0.672915
-0.644316
-0.697112
-0.726698
-0.702501
-0.672915
-0.726698
-0.757272
-0.733075
-0.702501
-0.757272
-0.788834
-0.764636
-0.733075
-0.788834
-0.821383
-0.797185
-0.764636
-0.821383
-0.854919
-0.830722
-0.797185
-0.854919
-0.889444
-0.865246
-0.830722
-0.889444
-0.924956
-0.900758
-0.865246
-0.924956
-0.961456
-0.937258
-0.900758
-0.961456
-0.998943
-0.974745
-0.937258
-0.998943
-1.03742
-1.01322
-0.974745
-1.03742
-1.07688
-1.05268
-1.01322
-1.07688
-1.11733
-1.09313
-1.05268
-1.11733
-1.15877
-1.13457
-1.09313
-1.15877
-1.20119
-1.177
-1.13457
-1.20119
-1.24461
-1.22041
-1.177
-1.24461
-1.28901
-1.26481
-1.22041
-1.28901
-1.3344
-1.3102
-1.26481
-1.3344
-1.38077
-1.35658
-1.3102
-1.38077
-1.42814
-1.40394
-1.35658
-1.42814
-1.47649
-1.45229
-1.40394
-1.47649
-1.52583
-1.50163
-1.45229
-1.52583
-1.57615
-1.55196
-1.50163
-3.69117
-3.60915
-3.58594
-3.66796
-3.60915
-3.52812
-3.50491
-3.58594
-3.52812
-3.44807
-3.42486
-3.50491
-3.44807
-3.36902
-3.34581
-3.42486
-3.36902
-3.29095
-3.26774
-3.34581
-3.29095
-3.21387
-3.19066
-3.26774
-3.21387
-3.13777
-3.11456
-3.19066
-3.13777
-3.06267
-3.03946
-3.11456
-3.06267
-2.98855
-2.96534
-3.03946
-2.98855
-2.91542
-2.89221
-2.96534
-2.91542
-2.84328
-2.82007
-2.89221
-2.84328
-2.77212
-2.74891
-2.82007
-2.77212
-2.70196
-2.67875
-2.74891
-2.70196
-2.63278
-2.60957
-2.67875
-2.63278
-2.56459
-2.54138
-2.60957
-2.56459
-2.49738
-2.47417
-2.54138
-2.49738
-2.43117
-2.40796
-2.47417
-2.43117
-2.36594
-2.34273
-2.40796
-2.36594
-2.3017
-2.27849
-2.34273
-2.3017
-2.23844
-2.21523
-2.27849
-2.23844
-2.17618
-2.15297
-2.21523
-2.17618
-2.1149
-2.09169
-2.15297
-2.1149
-2.05461
-2.0314
-2.09169
-2.05461
-1.99531
-1.9721
-2.0314
-1.99531
-1.93699
-1.91378
-1.9721
-1.93699
-1.87966
-1.85645
-1.91378
-1.87966
-1.82332
-1.80011
-1.85645
-1.82332
-1.76797
-1.74476
-1.80011
-1.76797
-1.71361
-1.6904
-1.74476
-1.71361
-1.66023
-1.63702
-1.6904
-1.66023
-1.60784
-1.58463
-1.63702
-1.60784
-1.55644
-1.53323
-1.58463
-1.55644
-1.50603
-1.48282
-1.53323
-1.50603
-1.4566
-1.43339
-1.48282
-1.4566
-1.40816
-1.38495
-1.43339
-1.40816
-1.36071
-1.3375
-1.38495
-1.36071
-1.31425
-1.29104
-1.3375
-1.31425
-1.26877
-1.24556
-1.29104
-1.26877
-1.22428
-1.20107
-1.24556
-1.22428
-1.18078
-1.15757
-1.20107
-1.18078
-1.13827
-1.11506
-1.15757
-1.13827
-1.09675
-1.07354
-1.11506
-1.09675
-1.05621
-1.033
-1.07354
-1.05621
-1.01666
-0.993448
-1.033
-1.01666
-0.978096
-0.954886
-0.993448
-0.978096
-0.940522
-0.917312
-0.954886
-0.940522
-0.903935
-0.880725
-0.917312
-0.903935
-0.868336
-0.845126
-0.880725
-0.868336
-0.833724
-0.810515
-0.845126
-0.833724
-0.800101
-0.776891
-0.810515
-0.800101
-0.767465
-0.744255
-0.776891
-0.767465
-0.735816
-0.712606
-0.744255
-0.735816
-0.705155
-0.681945
-0.712606
-0.705155
-0.675482
-0.652272
-0.681945
-0.675482
-0.646797
-0.623587
-0.652272
-0.646797
-0.619099
-0.595889
-0.623587
-0.619099
-0.592389
-0.569179
-0.595889
-0.592389
-0.566666
-0.543456
-0.569179
-0.566666
-0.541931
-0.518721
-0.543456
-0.541931
-0.518184
-0.494974
-0.518721
-0.518184
-0.495425
-0.472215
-0.494974
-0.495425
-0.473653
-0.450443
-0.472215
-0.473653
-0.452868
-0.429658
-0.450443
-0.452868
-0.433072
-0.409862
-0.429658
-0.433072
-0.414263
-0.391053
-0.409862
-0.414263
-0.396442
-0.373232
-0.391053
-0.396442
-0.379608
-0.356398
-0.373232
-0.379608
-0.363762
-0.340552
-0.356398
-0.363762
-0.348904
-0.325694
-0.340552
-0.348904
-0.335033
-0.311823
-0.325694
-0.335033
-0.32215
-0.29894
-0.311823
-0.32215
-0.310254
-0.287045
-0.29894
-0.310254
-0.299347
-0.276137
-0.287045
-0.299347
-0.289427
-0.266217
-0.276137
-0.289427
-0.280494
-0.257284
-0.266217
-0.280494
-0.27255
-0.24934
-0.257284
-0.27255
-0.265592
-0.242383
-0.24934
-0.265592
-0.259623
-0.236413
-0.242383
-0.259623
-0.254641
-0.231431
-0.236413
-0.254641
-0.250647
-0.227437
-0.231431
-0.250647
-0.247641
-0.224431
-0.227437
-0.247641
-0.245622
-0.222412
-0.224431
-0.245622
-0.244591
-0.221381
-0.222412
-0.244591
-0.244547
-0.221337
-0.221381
-0.244547
-0.245491
-0.222281
-0.221337
-0.245491
-0.247423
-0.224213
-0.222281
-0.247423
-0.250342
-0.227133
-0.224213
-0.250342
-0.25425
-0.23104
-0.227133
-0.25425
-0.259144
-0.235934
-0.23104
-0.259144
-0.265027
-0.241817
-0.235934
-0.265027
-0.271897
-0.248687
-0.241817
-0.271897
-0.279755
-0.256545
-0.248687
-0.279755
-0.2886
-0.26539
-0.256545
-0.2886
-0.298433
-0.275223
-0.26539
-0.298433
-0.309254
-0.286044
-0.275223
-0.309254
-0.321062
-0.297852
-0.286044
-0.321062
-0.333858
-0.310648
-0.297852
-0.333858
-0.347642
-0.324432
-0.310648
-0.347642
-0.362413
-0.339203
-0.324432
-0.362413
-0.378172
-0.354962
-0.339203
-0.378172
-0.394918
-0.371709
-0.354962
-0.394918
-0.412653
-0.389443
-0.371709
-0.412653
-0.431375
-0.408165
-0.389443
-0.431375
-0.451084
-0.427874
-0.408165
-0.451084
-0.471781
-0.448572
-0.427874
-0.471781
-0.493466
-0.470256
-0.448572
-0.493466
-0.516139
-0.492929
-0.470256
-0.516139
-0.539799
-0.516589
-0.492929
-0.539799
-0.564447
-0.541237
-0.516589
-0.564447
-0.590082
-0.566872
-0.541237
-0.590082
-0.616705
-0.593496
-0.566872
-0.616705
-0.644316
-0.621106
-0.593496
-0.644316
-0.672915
-0.649705
-0.621106
-0.672915
-0.702501
-0.679291
-0.649705
-0.702501
-0.733075
-0.709865
-0.679291
-0.733075
-0.764636
-0.741426
-0.709865
-0.764636
-0.797185
-0.773975
-0.741426
-0.797185
-0.830722
-0.807512
-0.773975
-0.830722
-0.865246
-0.842036
-0.807512
-0.865246
-0.900758
-0.877548
-0.842036
-0.900758