# vtk DataFile Version 1.0
unstructured Grid
ASCII
DATASET UNSTRUCTURED_GRID
POINTS 23424 float 
0 0	 0.0
0.0222222 0	 0.0
0.0222222 0.0222222	 0.0
0 0.0222222	 0.0
0.0222222 0	 0.0
0.0444444 0	 0.0
0.0444444 0.0222222	 0.0
0.0222222 0.0222222	 0.0
0.0444444 0	 0.0
0.0666667 0	 0.0
0.0666667 0.0222222	 0.0
0.0444444 0.0222222	 0.0
0.0666667 0	 0.0
0.0888889 0	 0.0
0.0888889 0.0222222	 0.0
0.0666667 0.0222222	 0.0
0.0888889 0	 0.0
0.111111 0	 0.0
0.111111 0.0222222	 0.0
0.0888889 0.0222222	 0.0
0.111111 0	 0.0
0.133333 0	 0.0
0.133333 0.0222222	 0.0
0.111111 0.0222222	 0.0
0.133333 0	 0.0
0.155556 0	 0.0
0.155556 0.0222222	 0.0
0.133333 0.0222222	 0.0
0.155556 0	 0.0
0.177778 0	 0.0
0.177778 0.0222222	 0.0
0.155556 0.0222222	 0.0
0.177778 0	 0.0
0.2 0	 0.0
0.2 0.0222222	 0.0
0.177778 0.0222222	 0.0
0.2 0	 0.0
0.222222 0	 0.0
0.222222 0.0222222	 0.0
0.2 0.0222222	 0.0
0.222222 0	 0.0
0.244444 0	 0.0
0.244444 0.0222222	 0.0
0.222222 0.0222222	 0.0
0.244444 0	 0.0
0.266667 0	 0.0
0.266667 0.0222222	 0.0
0.244444 0.0222222	 0.0
0.266667 0	 0.0
0.288889 0	 0.0
0.288889 0.0222222	 0.0
0.266667 0.0222222	 0.0
0.288889 0	 0.0
0.311111 0	 0.0
0.311111 0.0222222	 0.0
0.288889 0.0222222	 0.0
0.311111 0	 0.0
0.333333 0	 0.0
0.333333 0.0222222	 0.0
0.311111 0.0222222	 0.0
0.333333 0	 0.0
0.355556 0	 0.0
0.355556 0.0222222	 0.0
0.333333 0.0222222	 0.0
0.355556 0	 0.0
0.377778 0	 0.0
0.377778 0.0222222	 0.0
0.355556 0.0222222	 0.0
0.377778 0	 0.0
0.4 0	 0.0
0.4 0.0222222	 0.0
0.377778 0.0222222	 0.0
0.4 0	 0.0
0.422222 0	 0.0
0.422222 0.0222222	 0.0
0.4 0.0222222	 0.0
0.422222 0	 0.0
0.444444 0	 0.0
0.444444 0.0222222	 0.0
0.422222 0.0222222	 0.0
0.444444 0	 0.0
0.466667 0	 0.0
0.466667 0.0222222	 0.0
0.444444 0.0222222	 0.0
0.466667 0	 0.0
0.488889 0	 0.0
0.488889 0.0222222	 0.0
0.466667 0.0222222	 0.0
0.488889 0	 0.0
0.511111 0	 0.0
0.511111 0.0222222	 0.0
0.488889 0.0222222	 0.0
0.511111 0	 0.0
0.533333 0	 0.0
0.533333 0.0222222	 0.0
0.511111 0.0222222	 0.0
0.533333 0	 0.0
0.555556 0	 0.0
0.555556 0.0222222	 0.0
0.533333 0.0222222	 0.0
0.555556 0	 0.0
0.577778 0	 0.0
0.577778 0.0222222	 0.0
0.555556 0.0222222	 0.0
0.577778 0	 0.0
0.6 0	 0.0
0.6 0.0222222	 0.0
0.577778 0.0222222	 0.0
0.6 0	 0.0
0.622222 0	 0.0
0.622222 0.0222222	 0.0
0.6 0.0222222	 0.0
0.622222 0	 0.0
0.644444 0	 0.0
0.644444 0.0222222	 0.0
0.622222 0.0222222	 0.0
0.644444 0	 0.0
0.666667 0	 0.0
0.666667 0.0222222	 0.0
0.644444 0.0222222	 0.0
0.666667 0	 0.0
0.688889 0	 0.0
0.688889 0.0222222	 0.0
0.666667 0.0222222	 0.0
0.688889 0	 0.0
0.711111 0	 0.0
0.711111 0.0222222	 0.0
0.688889 0.0222222	 0.0
0.711111 0	 0.0
0.733333 0	 0.0
0.733333 0.0222222	 0.0
0.711111 0.0222222	 0.0
0.733333 0	 0.0
0.755556 0	 0.0
0.755556 0.0222222	 0.0
0.733333 0.0222222	 0.0
0.755556 0	 0.0
0.777778 0	 0.0
0.777778 0.0222222	 0.0
0.755556 0.0222222	 0.0
0.777778 0	 0.0
0.8 0	 0.0
0.8 0.0222222	 0.0
0.777778 0.0222222	 0.0
0.8 0	 0.0
0.822222 0	 0.0
0.822222 0.0222222	 0.0
0.8 0.0222222	 0.0
0.822222 0	 0.0
0.844444 0	 0.0
0.844444 0.0222222	 0.0
0.822222 0.0222222	 0.0
0.844444 0	 0.0
0.866667 0	 0.0
0.866667 0.0222222	 0.0
0.844444 0.0222222	 0.0
0.866667 0	 0.0
0.888889 0	 0.0
0.888889 0.0222222	 0.0
0.866667 0.0222222	 0.0
0.888889 0	 0.0
0.911111 0	 0.0
0.911111 0.0222222	 0.0
0.888889 0.0222222	 0.0
0.911111 0	 0.0
0.933333 0	 0.0
0.933333 0.0222222	 0.0
0.911111 0.0222222	 0.0
0.933333 0	 0.0
0.955556 0	 0.0
0.955556 0.0222222	 0.0
0.933333 0.0222222	 0.0
0.955556 0	 0.0
0.977778 0	 0.0
0.977778 0.0222222	 0.0
0.955556 0.0222222	 0.0
0.977778 0	 0.0
1 0	 0.0
1 0.0222222	 0.0
0.977778 0.0222222	 0.0
1 0	 0.0
1.02222 0	 0.0
1.02222 0.0222222	 0.0
1 0.0222222	 0.0
1.02222 0	 0.0
1.04444 0	 0.0
1.04444 0.0222222	 0.0
1.02222 0.0222222	 0.0
1.04444 0	 0.0
1.06667 0	 0.0
1.06667 0.0222222	 0.0
1.04444 0.0222222	 0.0
1.06667 0	 0.0
1.08889 0	 0.0
1.08889 0.0222222	 0.0
1.06667 0.0222222	 0.0
1.08889 0	 0.0
1.11111 0	 0.0
1.11111 0.0222222	 0.0
1.08889 0.0222222	 0.0
1.11111 0	 0.0
1.13333 0	 0.0
1.13333 0.0222222	 0.0
1.11111 0.0222222	 0.0
1.13333 0	 0.0
1.15556 0	 0.0
1.15556 0.0222222	 0.0
1.13333 0.0222222	 0.0
1.15556 0	 0.0
1.17778 0	 0.0
1.17778 0.0222222	 0.0
1.15556 0.0222222	 0.0
1.17778 0	 0.0
1.2 0	 0.0
1.2 0.0222222	 0.0
1.17778 0.0222222	 0.0
1.2 0	 0.0
1.22222 0	 0.0
1.22222 0.0222222	 0.0
1.2 0.0222222	 0.0
1.22222 0	 0.0
1.24444 0	 0.0
1.24444 0.0222222	 0.0
1.22222 0.0222222	 0.0
1.24444 0	 0.0
1.26667 0	 0.0
1.26667 0.0222222	 0.0
1.24444 0.0222222	 0.0
1.26667 0	 0.0
1.28889 0	 0.0
1.28889 0.0222222	 0.0
1.26667 0.0222222	 0.0
1.28889 0	 0.0
1.31111 0	 0.0
1.31111 0.0222222	 0.0
1.28889 0.0222222	 0.0
1.31111 0	 0.0
1.33333 0	 0.0
1.33333 0.0222222	 0.0
1.31111 0.0222222	 0.0
1.33333 0	 0.0
1.35556 0	 0.0
1.35556 0.0222222	 0.0
1.33333 0.0222222	 0.0
1.35556 0	 0.0
1.37778 0	 0.0
1.37778 0.0222222	 0.0
1.35556 0.0222222	 0.0
1.37778 0	 0.0
1.4 0	 0.0
1.4 0.0222222	 0.0
1.37778 0.0222222	 0.0
1.4 0	 0.0
1.42222 0	 0.0
1.42222 0.0222222	 0.0
1.4 0.0222222	 0.0
1.42222 0	 0.0
1.44444 0	 0.0
1.44444 0.0222222	 0.0
1.42222 0.0222222	 0.0
1.44444 0	 0.0
1.46667 0	 0.0
1.46667 0.0222222	 0.0
1.44444 0.0222222	 0.0
1.46667 0	 0.0
1.48889 0	 0.0
1.48889 0.0222222	 0.0
1.46667 0.0222222	 0.0
1.48889 0	 0.0
1.51111 0	 0.0
1.51111 0.0222222	 0.0
1.48889 0.0222222	 0.0
1.51111 0	 0.0
1.53333 0	 0.0
1.53333 0.0222222	 0.0
1.51111 0.0222222	 0.0
1.53333 0	 0.0
1.55556 0	 0.0
1.55556 0.0222222	 0.0
1.53333 0.0222222	 0.0
1.55556 0	 0.0
1.57778 0	 0.0
1.57778 0.0222222	 0.0
1.55556 0.0222222	 0.0
1.57778 0	 0.0
1.6 0	 0.0
1.6 0.0222222	 0.0
1.57778 0.0222222	 0.0
1.6 0	 0.0
1.62222 0	 0.0
1.62222 0.0222222	 0.0
1.6 0.0222222	 0.0
1.62222 0	 0.0
1.64444 0	 0.0
1.64444 0.0222222	 0.0
1.62222 0.0222222	 0.0
1.64444 0	 0.0
1.66667 0	 0.0
1.66667 0.0222222	 0.0
1.64444 0.0222222	 0.0
1.66667 0	 0.0
1.68889 0	 0.0
1.68889 0.0222222	 0.0
1.66667 0.0222222	 0.0
1.68889 0	 0.0
1.71111 0	 0.0
1.71111 0.0222222	 0.0
1.68889 0.0222222	 0.0
1.71111 0	 0.0
1.73333 0	 0.0
1.73333 0.0222222	 0.0
1.71111 0.0222222	 0.0
1.73333 0	 0.0
1.75556 0	 0.0
1.75556 0.0222222	 0.0
1.73333 0.0222222	 0.0
1.75556 0	 0.0
1.77778 0	 0.0
1.77778 0.0222222	 0.0
1.75556 0.0222222	 0.0
1.77778 0	 0.0
1.8 0	 0.0
1.8 0.0222222	 0.0
1.77778 0.0222222	 0.0
1.8 0	 0.0
1.82222 0	 0.0
1.82222 0.0222222	 0.0
1.8 0.0222222	 0.0
1.82222 0	 0.0
1.84444 0	 0.0
1.84444 0.0222222	 0.0
1.82222 0.0222222	 0.0
1.84444 0	 0.0
1.86667 0	 0.0
1.86667 0.0222222	 0.0
1.84444 0.0222222	 0.0
1.86667 0	 0.0
1.88889 0	 0.0
1.88889 0.0222222	 0.0
1.86667 0.0222222	 0.0
1.88889 0	 0.0
1.91111 0	 0.0
1.91111 0.0222222	 0.0
1.88889 0.0222222	 0.0
1.91111 0	 0.0
1.93333 0	 0.0
1.93333 0.0222222	 0.0
1.91111 0.0222222	 0.0
1.93333 0	 0.0
1.95556 0	 0.0
1.95556 0.0222222	 0.0
1.93333 0.0222222	 0.0
1.95556 0	 0.0
1.97778 0	 0.0
1.97778 0.0222222	 0.0
1.95556 0.0222222	 0.0
1.97778 0	 0.0
2 0	 0.0
2 0.0222222	 0.0
1.97778 0.0222222	 0.0
2 0	 0.0
2.02222 0	 0.0
2.02222 0.0222222	 0.0
2 0.0222222	 0.0
2.02222 0	 0.0
2.04444 0	 0.0
2.04444 0.0222222	 0.0
2.02222 0.0222222	 0.0
2.04444 0	 0.0
2.06667 0	 0.0
2.06667 0.0222222	 0.0
2.04444 0.0222222	 0.0
2.06667 0	 0.0
2.08889 0	 0.0
2.08889 0.0222222	 0.0
2.06667 0.0222222	 0.0
2.08889 0	 0.0
2.11111 0	 0.0
2.11111 0.0222222	 0.0
2.08889 0.0222222	 0.0
2.11111 0	 0.0
2.13333 0	 0.0
2.13333 0.0222222	 0.0
2.11111 0.0222222	 0.0
2.13333 0	 0.0
2.15556 0	 0.0
2.15556 0.0222222	 0.0
2.13333 0.0222222	 0.0
2.15556 0	 0.0
2.17778 0	 0.0
2.17778 0.0222222	 0.0
2.15556 0.0222222	 0.0
2.17778 0	 0.0
2.2 0	 0.0
2.2 0.0222222	 0.0
2.17778 0.0222222	 0.0
2.2 0	 0.0
2.22222 0	 0.0
2.22222 0.0222222	 0.0
2.2 0.0222222	 0.0
2.22222 0	 0.0
2.24444 0	 0.0
2.24444 0.0222222	 0.0
2.22222 0.0222222	 0.0
2.24444 0	 0.0
2.26667 0	 0.0
2.26667 0.0222222	 0.0
2.24444 0.0222222	 0.0
2.26667 0	 0.0
2.28889 0	 0.0
2.28889 0.0222222	 0.0
2.26667 0.0222222	 0.0
2.28889 0	 0.0
2.31111 0	 0.0
2.31111 0.0222222	 0.0
2.28889 0.0222222	 0.0
2.31111 0	 0.0
2.33333 0	 0.0
2.33333 0.0222222	 0.0
2.31111 0.0222222	 0.0
2.33333 0	 0.0
2.35556 0	 0.0
2.35556 0.0222222	 0.0
2.33333 0.0222222	 0.0
2.35556 0	 0.0
2.37778 0	 0.0
2.37778 0.0222222	 0.0
2.35556 0.0222222	 0.0
2.37778 0	 0.0
2.4 0	 0.0
2.4 0.0222222	 0.0
2.37778 0.0222222	 0.0
2.4 0	 0.0
2.42222 0	 0.0
2.42222 0.0222222	 0.0
2.4 0.0222222	 0.0
2.42222 0	 0.0
2.44444 0	 0.0
2.44444 0.0222222	 0.0
2.42222 0.0222222	 0.0
2.44444 0	 0.0
2.46667 0	 0.0
2.46667 0.0222222	 0.0
2.44444 0.0222222	 0.0
2.46667 0	 0.0
2.48889 0	 0.0
2.48889 0.0222222	 0.0
2.46667 0.0222222	 0.0
2.48889 0	 0.0
2.51111 0	 0.0
2.51111 0.0222222	 0.0
2.48889 0.0222222	 0.0
2.51111 0	 0.0
2.53333 0	 0.0
2.53333 0.0222222	 0.0
2.51111 0.0222222	 0.0
2.53333 0	 0.0
2.55556 0	 0.0
2.55556 0.0222222	 0.0
2.53333 0.0222222	 0.0
2.55556 0	 0.0
2.57778 0	 0.0
2.57778 0.0222222	 0.0
2.55556 0.0222222	 0.0
2.57778 0	 0.0
2.6 0	 0.0
2.6 0.0222222	 0.0
2.57778 0.0222222	 0.0
2.6 0	 0.0
2.62222 0	 0.0
2.62222 0.0222222	 0.0
2.6 0.0222222	 0.0
2.62222 0	 0.0
2.64444 0	 0.0
2.64444 0.0222222	 0.0
2.62222 0.0222222	 0.0
2.64444 0	 0.0
2.66667 0	 0.0
2.66667 0.0222222	 0.0
2.64444 0.0222222	 0.0
2.66667 0	 0.0
2.68889 0	 0.0
2.68889 0.0222222	 0.0
2.66667 0.0222222	 0.0
2.68889 0	 0.0
2.71111 0	 0.0
2.71111 0.0222222	 0.0
2.68889 0.0222222	 0.0
2.71111 0	 0.0
2.73333 0	 0.0
2.73333 0.0222222	 0.0
2.71111 0.0222222	 0.0
2.73333 0	 0.0
2.75556 0	 0.0
2.75556 0.0222222	 0.0
2.73333 0.0222222	 0.0
2.75556 0	 0.0
2.77778 0	 0.0
2.77778 0.0222222	 0.0
2.75556 0.0222222	 0.0
2.77778 0	 0.0
2.8 0	 0.0
2.8 0.0222222	 0.0
2.77778 0.0222222	 0.0
2.8 0	 0.0
2.82222 0	 0.0
2.82222 0.0222222	 0.0
2.8 0.0222222	 0.0
2.82222 0	 0.0
2.84444 0	 0.0
2.84444 0.0222222	 0.0
2.82222 0.0222222	 0.0
2.84444 0	 0.0
2.86667 0	 0.0
2.86667 0.0222222	 0.0
2.84444 0.0222222	 0.0
2.86667 0	 0.0
2.88889 0	 0.0
2.88889 0.0222222	 0.0
2.86667 0.0222222	 0.0
2.88889 0	 0.0
2.91111 0	 0.0
2.91111 0.0222222	 0.0
2.88889 0.0222222	 0.0
2.91111 0	 0.0
[...]
POINT_DATA 23424
SCALARS levelset_first float
LOOKUP_TABLE default
-5.33285
-5.23383
-5.20766
-5.30667
-5.23383
-5.1358
-5.10963
-5.20766
-5.1358
-5.03877
-5.01259
-5.10963
-5.03877
-4.94271
-4.91654
-5.01259
-4.94271
-4.84765
-4.82148
-4.91654
-4.84765
-4.75357
-4.7274
-4.82148
-4.75357
-4.66048
-4.63431
-4.7274
-4.66048
-4.56838
-4.54221
-4.63431
-4.56838
-4.47727
-4.4511
-4.54221
-4.47727
-4.38714
-4.36097
-4.4511
-4.38714
-4.29801
-4.27183
-4.36097
-4.29801
-4.20986
-4.18368
-4.27183
-4.20986
-4.12269
-4.09652
-4.18368
-4.12269
-4.03652
-4.01035
-4.09652
-4.03652
-3.95133
-3.92516
-4.01035
-3.95133
-3.86713
-3.84096
-3.92516
-3.86713
-3.78392
-3.75775
-3.84096
-3.78392
-3.7017
-3.67552
-3.75775
-3.7017
-3.62046
-3.59429
-3.67552
-3.62046
-3.54021
-3.51404
-3.59429
-3.54021
-3.46095
-3.43477
-3.51404
-3.46095
-3.38267
-3.3565
-3.43477
-3.38267
-3.30539
-3.27921
-3.3565
-3.30539
-3.22909
-3.20292
-3.27921
-3.22909
-3.15378
-3.12761
-3.20292
-3.15378
-3.07946
-3.05328
-3.12761
-3.07946
-3.00612
-2.97995
-3.05328
-3.00612
-2.93377
-2.9076
-2.97995
-2.93377
-2.86241
-2.83624
-2.9076
-2.86241
-2.79204
-2.76587
-2.83624
-2.79204
-2.72265
-2.69648
-2.76587
-2.72265
-2.65426
-2.62808
-2.69648
-2.65426
-2.58685
-2.56067
-2.62808
-2.58685
-2.52043
-2.49425
-2.56067
-2.52043
-2.45499
-2.42882
-2.49425
-2.45499
-2.39054
-2.36437
-2.42882
-2.39054
-2.32709
-2.30091
-2.36437
-2.32709
-2.26461
-2.23844
-2.30091
-2.26461
-2.20313
-2.17696
-2.23844
-2.20313
-2.14263
-2.11646
-2.17696
-2.14263
-2.08313
-2.05695
-2.11646
-2.08313
-2.02461
-1.99843
-2.05695
-2.02461
-1.96707
-1.9409
-1.99843
-1.96707
-1.91053
-1.88435
-1.9409
-1.91053
-1.85497
-1.8288
-1.88435
-1.85497
-1.8004
-1.77423
-1.8288
-1.8004
-1.74682
-1.72064
-1.77423
-1.74682
-1.69422
-1.66805
-1.72064
-1.69422
-1.64261
-1.61644
-1.66805
-1.64261
-1.59199
-1.56582
-1.61644
-1.59199
-1.54236
-1.51619
-1.56582
-1.54236
-1.49372
-1.46755
-1.51619
-1.49372
-1.44606
-1.41989
-1.46755
-1.44606
-1.39939
-1.37322
-1.41989
-1.39939
-1.35371
-1.32754
-1.37322
-1.35371
-1.30902
-1.28285
-1.32754
-1.30902
-1.26531
-1.23914
-1.28285
-1.26531
-1.22259
-1.19642
-1.23914
-1.22259
-1.18086
-1.15469
-1.19642
-1.18086
-1.14012
-1.11395
-1.15469
-1.14012
-1.10037
-1.07419
-1.11395
-1.10037
-1.0616
-1.03543
-1.07419
-1.0616
-1.02382
-0.997645
-1.03543
-1.02382
-0.987026
-0.960853
-0.997645
-0.987026
-0.951221
-0.925048
-0.960853
-0.951221
-0.916404
-0.890231
-0.925048
-0.916404
-0.882575
-0.856402
-0.890231
-0.882575
-0.849733
-0.82356
-0.856402
-0.849733
-0.817879
-0.791706
-0.82356
-0.817879
-0.787012
-0.76084
-0.791706
-0.787012
-0.757134
-0.730961
-0.76084
-0.757134
-0.728243
-0.70207
-0.730961
-0.728243
-0.700339
-0.674166
-0.70207
-0.700339
-0.673423
-0.64725
-0.674166
-0.673423
-0.647495
-0.621322
-0.64725
-0.647495
-0.622555
-0.596382
-0.621322
-0.622555
-0.598602
-0.572429
-0.596382
-0.598602
-0.575637
-0.549464
-0.572429
-0.575637
-0.553659
-0.527486
-0.549464
-0.553659
-0.532669
-0.506496
-0.527486
-0.532669
-0.512667
-0.486494
-0.506496
-0.512667
-0.493653
-0.46748
-0.486494
-0.493653
-0.475626
-0.449453
-0.46748
-0.475626
-0.458586
-0.432414
-0.449453
-0.458586
-0.442535
-0.416362
-0.432414
-0.442535
-0.427471
-0.401298
-0.416362
-0.427471
-0.413395
-0.387222
-0.401298
-0.413395
-0.400306
-0.374133
-0.387222
-0.400306
-0.388205
-0.362032
-0.374133
-0.388205
-0.377092
-0.350919
-0.362032
-0.377092
-0.366966
-0.340793
-0.350919
-0.366966
-0.357828
-0.331655
-0.340793
-0.357828
-0.349678
-0.323505
-0.331655
-0.349678
-0.342515
-0.316342
-0.323505
-0.342515
-0.33634
-0.310167
-0.316342
-0.33634
-0.331152
-0.30498
-0.310167
-0.331152
-0.326953
-0.30078
-0.30498
-0.326953
-0.323741
-0.297568
-0.30078
-0.323741
-0.321516
-0.295343
-0.297568
-0.321516
-0.320279
-0.294107
-0.295343
-0.320279
-0.32003
-0.293857
-0.294107
-0.32003
-0.320769
-0.294596
-0.293857
-0.320769
-0.322495
-0.296322
-0.294596
-0.322495
-0.325209
-0.299036
-0.296322
-0.325209
-0.32891
-0.302738
-0.299036
-0.32891
-0.3336
-0.307427
-0.302738
-0.3336
-0.339276
-0.313103
-0.307427
-0.339276
-0.345941
-0.319768
-0.313103
-0.345941
-0.353593
-0.32742
-0.319768
-0.353593
-0.362233
-0.33606
-0.32742
-0.362233
-0.37186
-0.345687
-0.33606
-0.37186
-0.382475
-0.356302
-0.345687
-0.382475
-0.394078
-0.367905
-0.356302
-0.394078
-0.406668
-0.380495
-0.367905
-0.406668
-0.420246
-0.394073
-0.380495
-0.420246
-0.434812
-0.408639
-0.394073
-0.434812
-0.450365
-0.424193
-0.408639
-0.450365
-0.466906
-0.440734
-0.424193
-0.466906
-0.484435
-0.458262
-0.440734
-0.484435
-0.502951
-0.476778
-0.458262
-0.502951
-0.522455
-0.496282
-0.476778
-0.522455
-0.542947
-0.516774
-0.496282
-0.542947
-0.564426
-0.538253
-0.516774
-0.564426
-0.586893
-0.56072
-0.538253
-0.586893
-0.610348
-0.584175
-0.56072
-0.610348
-0.63479
-0.608617
-0.584175
-0.63479
-0.66022
-0.634047
-0.608617
-0.66022
-0.686637
-0.660465
-0.634047
-0.686637
-0.714043
-0.68787
-0.660465
-0.714043
-0.742435
-0.716263
-0.68787
-0.742435
-0.771816
-0.745643
-0.716263
-0.771816
-0.802184
-0.776011
-0.745643
-0.802184
-0.83354
-0.807367
-0.776011
-0.83354
-0.865883
-0.839711
-0.807367
-0.865883
-0.899214
-0.873042
-0.839711
-5.30667
-5.20766
-5.18247
-5.28149
-5.20766
-5.10963
-5.08445
-5.18247
-5.10963
-5.01259
-4.98741
-5.08445
-5.01259
-4.91654
-4.89136
-4.98741
-4.91654
-4.82148
-4.79629
-4.89136
-4.82148
-4.7274
-4.70222
-4.79629
-4.7274
-4.63431
-4.60913
-4.70222
-4.63431
-4.54221
-4.51703
-4.60913
-4.54221
-4.4511
-4.42591
-4.51703
-4.4511
-4.36097
-4.33579
-4.42591
-4.36097
-4.27183
-4.24665
-4.33579
-4.27183
-4.18368
-4.1585
-4.24665
-4.18368
-4.09652
-4.07134
-4.1585
-4.09652
-4.01035
-3.98516
-4.07134
-4.01035
-3.92516
-3.89997
-3.98516
-3.92516
-3.84096
-3.81577
-3.89997
-3.84096
-3.75775
-3.73256
-3.81577
-3.75775
-3.67552
-3.65034
-3.73256
-3.67552
-3.59429
-3.5691
-3.65034
-3.59429
-3.51404
-3.48885
-3.5691
-3.51404
-3.43477
-3.40959
-3.48885
-3.43477
-3.3565
-3.33132
-3.40959
-3.3565
-3.27921
-3.25403
-3.33132
-3.27921
-3.20292
-3.17773
-3.25403
-3.20292
-3.12761
-3.10242
-3.17773
-3.12761
-3.05328
-3.0281
-3.10242
-3.05328
-2.97995
-2.95476
-3.0281
-2.97995
-2.9076
-2.88241
-2.95476
-2.9076
-2.83624
-2.81105
-2.88241
-2.83624
-2.76587
-2.74068
-2.81105
-2.76587
-2.69648
-2.6713
-2.74068
-2.69648
-2.62808
-2.6029
-2.6713
-2.62808
-2.56067
-2.53549
-2.6029
-2.56067
-2.49425
-2.46907
-2.53549
-2.49425
-2.42882
-2.40363
-2.46907
-2.42882
-2.36437
-2.33919
-2.40363
-2.36437
-2.30091
-2.27573
-2.33919
-2.30091
-2.23844
-2.21326
-2.27573
-2.23844
-2.17696
-2.15177
-2.21326
-2.17696
-2.11646
-2.09128
-2.15177
-2.11646
-2.05695
-2.03177
-2.09128
-2.05695
-1.99843
-1.97325
-2.03177
-1.99843
-1.9409
-1.91571
-1.97325
-1.9409
-1.88435
-1.85917
-1.91571
-1.88435
-1.8288
-1.80361
-1.85917
-1.8288
-1.77423
-1.74904
-1.80361
-1.77423
-1.72064
-1.69546
-1.74904
-1.72064
-1.66805
-1.64286
-1.69546
-1.66805
-1.61644
-1.59126
-1.64286
-1.61644
-1.56582
-1.54064
-1.59126
-1.56582
-1.51619
-1.491
-1.54064
-1.51619
-1.46755
-1.44236
-1.491
-1.46755
-1.41989
-1.3947
-1.44236
-1.41989
-1.37322
-1.34804
-1.3947
-1.37322
-1.32754
-1.30235
-1.34804
-1.32754
-1.28285
-1.25766
-1.30235
-1.28285
-1.23914
-1.21395
-1.25766
-1.23914
-1.19642
-1.17124
-1.21395
-1.19642
-1.15469
-1.12951
-1.17124
-1.15469
-1.11395
-1.08876
-1.12951
-1.11395
-1.07419
-1.04901
-1.08876
-1.07419
-1.03543
-1.01024
-1.04901
-1.03543
-0.997645
-0.97246
-1.01024
-0.997645
-0.960853
-0.935668
-0.97246
-0.960853
-0.925048
-0.899863
-0.935668
-0.925048
-0.890231
-0.865046
-0.899863
-0.890231
-0.856402
-0.831217
-0.865046
-0.856402
-0.82356
-0.798375
-0.831217
-0.82356
-0.791706
-0.766521
-0.798375
-0.791706
-0.76084
-0.735654
-0.766521
-0.76084
-0.730961
-0.705776
-0.735654
-0.730961
-0.70207
-0.676884
-0.705776
-0.70207
-0.674166
-0.648981
-0.676884
-0.674166
-0.64725
-0.622065
-0.648981
-0.64725
-0.621322
-0.596137
-0.622065
-0.621322
-0.596382
-0.571197
-0.596137
-0.596382
-0.572429
-0.547244
-0.571197
-0.572429
-0.549464
-0.524279
-0.547244
-0.549464
-0.527486
-0.502301
-0.524279
-0.527486
-0.506496
-0.481311
-0.502301
-0.506496
-0.486494
-0.461309
-0.481311
-0.486494
-0.46748
-0.442294
-0.461309
-0.46748
-0.449453
-0.424268
-0.442294
-0.449453
-0.432414
-0.407228
-0.424268
-0.432414
-0.416362
-0.391177
-0.407228
-0.416362
-0.401298
-0.376113
-0.391177
-0.401298
-0.387222
-0.362037
-0.376113
-0.387222
-0.374133
-0.348948
-0.362037
-0.374133
-0.362032
-0.336847
-0.348948
-0.362032
-0.350919
-0.325734
-0.336847
-0.350919
-0.340793
-0.315608
-0.325734
-0.340793
-0.331655
-0.30647
-0.315608
-0.331655
-0.323505
-0.29832
-0.30647
-0.323505
-0.316342
-0.291157
-0.29832
-0.316342
-0.310167
-0.284982
-0.291157
-0.310167
-0.30498
-0.279794
-0.284982
-0.30498
-0.30078
-0.275595
-0.279794
-0.30078
-0.297568
-0.272383
-0.275595
-0.297568
-0.295343
-0.270158
-0.272383
-0.295343
-0.294107
-0.268921
-0.270158
-0.294107
-0.293857
-0.268672
-0.268921
-0.293857
-0.294596
-0.269411
-0.268672
-0.294596
-0.296322
-0.271137
-0.269411
-0.296322
-0.299036
-0.273851
-0.271137
-0.299036
-0.302738
-0.277552
-0.273851
-0.302738
-0.307427
-0.282241
-0.277552
-0.307427
-0.313103
-0.287918
-0.282241
-0.313103
-0.319768
-0.294583
-0.287918
-0.319768
-0.32742
-0.302235
-0.294583
-0.32742
-0.33606
-0.310875
-0.302235
-0.33606
-0.345687
-0.320502
-0.310875
-0.345687
-0.356302
-0.331117
-0.320502
-0.356302
-0.367905
-0.34272
-0.331117
-0.367905
-0.380495
-0.35531
-0.34272
-0.380495
-0.394073
-0.368888
-0.35531
-0.394073
-0.408639
-0.383454
-0.368888
-0.408639
-0.424193
-0.399007
-0.383454
-0.424193
-0.440734
-0.415548
-0.399007
-0.440734
-0.458262
-0.433077
-0.415548
-0.458262
-0.476778
-0.451593
-0.433077
-0.476778
-0.496282
-0.471097
-0.451593
-0.496282
-0.516774
-0.491589
-0.471097
-0.516774
-0.538253
-0.513068
-0.491589
-0.538253
-0.56072
-0.535535
-0.513068
-0.56072
-0.584175
-0.55899
-0.535535
-0.584175
-0.608617
-0.583432
-0.55899
-0.608617
-0.634047
-0.608862
-0.583432
-0.634047
-0.660465
-0.635279
-0.608862
-0.660465
-0.68787
-0.662685
-0.635279
-0.68787
-0.716263
-0.691077
-0.662685
-0.716263
-0.745643
-0.720458
-0.691077
-0.745643
-0.776011
-0.750826
-0.720458
-0.776011
-0.807367
-0.782182
-0.750826
-0.807367
-0.839711
-0.814525
-0.782182
-0.839711
-0.873042
-0.847856
-0.814525
-5.28149
-5.18247
-5.15828
-5.25729
-5.18247
-5.08445
-5.06025
-5.15828
-5.08445
-4.98741
-4.96321
-5.06025
-4.98741
-4.89136
-4.86716
-4.96321
-4.89136
-4.79629
-4.77209
-4.86716
-4.79629
-4.70222
-4.67802
-4.77209
-4.70222
-4.60913
-4.58493
-4.67802
-4.60913
-4.51703
-4.49283
-4.58493
-4.51703
-4.42591
-4.40171
-4.49283
-4.42591
-4.33579
-4.31159
-4.40171
-4.33579
-4.24665
-4.22245
-4.31159
-4.24665
-4.1585
-4.1343
-4.22245
-4.1585
-4.07134
-4.04714
-4.1343
-4.07134
-3.98516
-3.96096
-4.04714
-3.98516
-3.89997
-3.87578
-3.96096
-3.89997
-3.81577
-3.79158
-3.87578
-3.81577
-3.73256
-3.70836
-3.79158
-3.73256
-3.65034
-3.62614
-3.70836
-3.65034
-3.5691
-3.5449
-3.62614
-3.5691
-3.48885
-3.46465
-3.5449
-3.48885
-3.40959
-3.38539
-3.46465
-3.40959
-3.33132
-3.30712
-3.38539
-3.33132
-3.25403
-3.22983
-3.30712
-3.25403
-3.17773
-3.15353
-3.22983
-3.17773
-3.10242
-3.07822
-3.15353
-3.10242
-3.0281
-3.0039
-3.07822
-3.0281
-2.95476
-2.93056
-3.0039
-2.95476
-2.88241
-2.85822
-2.93056
-2.88241
-2.81105
-2.78686
-2.85822
-2.81105
-2.74068
-2.71648
-2.78686
-2.74068
-2.6713
-2.6471
-2.71648
-2.6713
-2.6029
-2.5787
-2.6471
-2.6029
-2.53549
-2.51129
-2.5787
-2.53549
-2.46907
-2.44487
-2.51129
-2.46907
-2.40363
-2.37944
-2.44487
-2.40363
-2.33919
-2.31499
-2.37944
-2.33919
-2.27573
-2.25153
-2.31499
-2.27573
-2.21326
-2.18906
-2.25153
-2.21326
-2.15177
-2.12757
-2.18906
-2.15177
-2.09128
-2.06708
-2.12757
-2.09128
-2.03177
-2.00757
-2.06708
-2.03177
-1.97325
-1.94905
-2.00757
-1.97325
-1.91571
-1.89152
-1.94905
-1.91571
-1.85917
-1.83497
-1.89152
-1.85917
-1.80361
-1.77941
-1.83497
-1.80361
-1.74904
-1.72484
-1.77941
-1.74904
-1.69546
-1.67126
-1.72484
-1.69546
-1.64286
-1.61867
-1.67126
-1.64286
-1.59126
-1.56706
-1.61867
-1.59126
-1.54064
-1.51644
-1.56706
-1.54064
-1.491
-1.46681
-1.51644
-1.491
-1.44236
-1.41816
-1.46681
-1.44236
-1.3947
-1.37051
-1.41816
-1.3947
-1.34804
-1.32384
-1.37051
-1.34804
-1.30235
-1.27816
-1.32384
-1.30235
-1.25766
-1.23346
-1.27816
-1.25766
-1.21395
-1.18976
-1.23346
-1.21395
-1.17124
-1.14704
-1.18976
-1.17124
-1.12951
-1.10531
-1.14704
-1.12951
-1.08876
-1.06457
-1.10531
-1.08876
-1.04901
-1.02481
-1.06457
-1.04901
-1.01024
-0.986042
-1.02481
-1.01024
-0.97246
-0.948262
-0.986042
-0.97246
-0.935668
-0.91147
-0.948262
-0.935668
-0.899863
-0.875665
-0.91147
-0.899863
-0.865046
-0.840848
-0.875665
-0.865046
-0.831217
-0.807019
-0.840848
-0.831217
-0.798375
-0.774177
-0.807019
-0.798375
-0.766521
-0.742323
-0.774177
-0.766521
-0.735654
-0.711457
-0.742323
-0.735654
-0.705776
-0.681578
-0.711457
-0.705776
-0.676884
-0.652687
-0.681578
-0.676884
-0.648981
-0.624784
-0.652687
-0.648981
-0.622065
-0.597868
-0.624784
-0.622065
-0.596137
-0.57194
-0.597868
-0.596137
-0.571197
-0.546999
-0.57194
-0.571197
-0.547244
-0.523046
-0.546999
-0.547244
-0.524279
-0.500081
-0.523046
-0.524279
-0.502301
-0.478104
-0.500081
-0.502301
-0.481311
-0.457114
-0.478104
-0.481311
-0.461309
-0.437112
-0.457114
-0.461309
-0.442294
-0.418097
-0.437112
-0.442294
-0.424268
-0.40007
-0.418097
-0.424268
-0.407228
-0.383031
-0.40007
-0.407228
-0.391177
-0.366979
-0.383031
-0.391177
-0.376113
-0.351915
-0.366979
-0.376113
-0.362037
-0.337839
-0.351915
-0.362037
-0.348948
-0.32475
-0.337839
-0.348948
-0.336847
-0.312649
-0.32475
-0.336847
-0.325734
-0.301536
-0.312649
-0.325734
-0.315608
-0.29141
-0.301536
-0.315608
-0.30647
-0.282272
-0.29141
-0.30647
-0.29832
-0.274122
-0.282272
-0.29832
-0.291157
-0.266959
-0.274122
-0.291157
-0.284982
-0.260784
-0.266959
-0.284982
-0.279794
-0.255597
-0.260784
-0.279794
-0.275595
-0.251397
-0.255597
-0.275595
-0.272383
-0.248185
-0.251397
-0.272383
-0.270158
-0.245961
-0.248185
-0.270158
-0.268921
-0.244724
-0.245961
-0.268921
-0.268672
-0.244475
-0.244724
-0.268672
-0.269411
-0.245213
-0.244475
-0.269411
-0.271137
-0.246939
-0.245213
-0.271137
-0.273851
-0.249653
-0.246939
-0.273851
-0.277552
-0.253355
-0.249653
-0.277552
-0.282241
-0.258044
-0.253355
-0.282241
-0.287918
-0.263721
-0.258044
-0.287918
-0.294583
-0.270385
-0.263721
-0.294583
-0.302235
-0.278037
-0.270385
-0.302235
-0.310875
-0.286677
-0.278037
-0.310875
-0.320502
-0.296305
-0.286677
-0.320502
-0.331117
-0.30692
-0.296305
-0.331117
-0.34272
-0.318522
-0.30692
-0.34272
-0.35531
-0.331113
-0.318522
-0.35531
-0.368888
-0.344691
-0.331113
-0.368888
-0.383454
-0.359256
-0.344691
-0.383454
-0.399007
-0.37481
-0.359256
-0.399007
-0.415548
-0.391351
-0.37481
-0.415548
-0.433077
-0.408879
-0.391351
-0.433077
-0.451593
-0.427396
-0.408879
-0.451593
-0.471097
-0.4469
-0.427396
-0.471097
-0.491589
-0.467391
-0.4469
-0.491589
-0.513068
-0.488871
-0.467391
-0.513068
-0.535535
-0.511338
-0.488871
-0.535535
-0.55899
-0.534792
-0.511338
-0.55899
-0.583432
-0.559234
-0.534792
-0.583432
-0.608862
-0.584664
-0.559234
-0.608862
-0.635279
-0.611082
-0.584664
-0.635279
-0.662685
-0.638487
-0.611082
-0.662685
-0.691077
-0.66688
-0.638487
-0.691077
-0.720458
-0.69626
-0.66688
-0.720458
-0.750826
-0.726629
-0.69626
-0.750826
-0.782182
-0.757984
-0.726629
-0.782182
-0.814525
-0.790328
-0.757984
-0.814525
-0.847856
-0.823659
-0.790328
-5.25729
-5.15828
-5.13507
-5.23408
-5.15828
-5.06025
-5.03704
-5.13507
-5.06025
-4.96321
-4.94
-5.03704
-4.96321
-4.86716
-4.84395
-4.94
-4.86716
-4.77209
-4.74888
-4.84395
-4.77209
-4.67802
-4.65481
-4.74888
-4.67802
-4.58493
-4.56172
-4.65481
-4.58493
-4.49283
-4.46962
-4.56172
-4.49283
-4.40171
-4.37851
-4.46962
-4.40171
-4.31159
-4.28838
-4.37851
-4.31159
-4.22245
-4.19924
-4.28838
-4.22245
-4.1343
-4.11109
-4.19924
-4.1343
-4.04714
-4.02393
-4.11109
-4.04714
-3.96096
-3.93775
-4.02393
-3.96096
-3.87578
-3.85257
-3.93775
-3.87578
-3.79158
-3.76837
-3.85257
-3.79158
-3.70836
-3.68515
-3.76837
-3.70836
-3.62614
-3.60293
-3.68515
-3.62614
-3.5449
-3.52169
-3.60293
-3.5449
-3.46465
-3.44144
-3.52169
-3.46465
-3.38539
-3.36218
-3.44144
-3.38539
-3.30712
-3.28391
-3.36218
-3.30712
-3.22983
-3.20662
-3.28391
-3.22983
-3.15353
-3.13032
-3.20662
-3.15353
-3.07822
-3.05501
-3.13032
-3.07822
-3.0039
-2.98069
-3.05501
-3.0039
-2.93056
-2.90735
-2.98069
-2.93056
-2.85822
-2.83501
-2.90735
-2.85822
-2.78686
-2.76365
-2.83501
-2.78686
-2.71648
-2.69327
-2.76365
-2.71648
-2.6471
-2.62389
-2.69327
-2.6471
-2.5787
-2.55549
-2.62389
-2.5787
-2.51129
-2.48808
-2.55549
-2.51129
-2.44487
-2.42166
-2.48808
-2.44487
-2.37944
-2.35623
-2.42166
-2.37944
-2.31499
-2.29178
-2.35623
-2.31499
-2.25153
-2.22832
-2.29178
-2.25153
-2.18906
-2.16585
-2.22832
-2.18906
-2.12757
-2.10436
-2.16585
-2.12757
-2.06708
-2.04387
-2.10436
-2.06708
-2.00757
-1.98436
-2.04387
-2.00757
-1.94905
-1.92584
-1.98436
-1.94905
-1.89152
-1.86831
-1.92584
-1.89152
-1.83497
-1.81176
-1.86831
-1.83497
-1.77941
-1.7562
-1.81176
-1.77941
-1.72484
-1.70163
-1.7562
-1.72484
-1.67126
-1.64805
-1.70163
-1.67126
-1.61867
-1.59546
-1.64805
-1.61867
-1.56706
-1.54385
-1.59546
-1.56706
-1.51644
-1.49323
-1.54385
-1.51644
-1.46681
-1.4436
-1.49323
-1.46681
-1.41816
-1.39495
-1.4436
-1.41816
-1.37051
-1.3473
-1.39495
-1.37051
-1.32384
-1.30063
-1.3473
-1.32384
-1.27816
-1.25495
-1.30063
-1.27816
-1.23346
-1.21025
-1.25495
-1.23346
-1.18976
-1.16655
-1.21025
-1.18976
-1.14704
-1.12383
-1.16655
-1.14704
-1.10531
-1.0821
-1.12383
-1.10531
-1.06457
-1.04136
-1.0821
-1.06457
-1.02481
-1.0016
-1.04136
-1.02481
-0.986042
-0.962832
-1.0016
-0.986042
-0.948262
-0.925053
-0.962832
-0.948262
-0.91147
-0.88826
-0.925053
-0.91147
-0.875665
-0.852456
-0.88826
-0.875665
-0.840848
-0.817638
-0.852456
-0.840848
-0.807019
-0.783809
-0.817638
-0.807019
-0.774177
-0.750967
-0.783809
-0.774177
-0.742323
-0.719113
-0.750967
-0.742323
-0.711457
-0.688247
-0.719113
-0.711457
-0.681578
-0.658368
-0.688247
-0.681578
-0.652687
-0.629477
-0.658368
-0.652687
-0.624784
-0.601574
-0.629477
-0.624784
-0.597868
-0.574658
-0.601574
-0.597868
-0.57194
-0.54873
-0.574658
-0.57194
-0.546999
-0.523789
-0.54873
-0.546999
-0.523046
-0.499836
-0.523789
-0.523046
-0.500081
-0.476871
-0.499836
-0.500081
-0.478104
-0.454894
-0.476871
-0.478104
-0.457114
-0.433904
-0.454894
-0.457114
-0.437112
-0.413902
-0.433904
-0.437112
-0.418097
-0.394887
-0.413902
-0.418097
-0.40007
-0.37686
-0.394887
-0.40007
-0.383031
-0.359821
-0.37686
-0.383031
-0.366979
-0.343769
-0.359821
-0.366979
-0.351915
-0.328705
-0.343769
-0.351915
-0.337839
-0.314629
-0.328705
-0.337839
-0.32475
-0.301541
-0.314629
-0.32475
-0.312649
-0.28944
-0.301541
-0.312649
-0.301536
-0.278326
-0.28944
-0.301536
-0.29141
-0.268201
-0.278326
-0.29141
-0.282272
-0.259063
-0.268201
-0.282272
-0.274122
-0.250912
-0.259063
-0.274122
-0.266959
-0.243749
-0.250912
-0.266959
-0.260784
-0.237574
-0.243749
-0.260784
-0.255597
-0.232387
-0.237574
-0.255597
-0.251397
-0.228187
-0.232387
-0.251397
-0.248185
-0.224975
-0.228187
-0.248185
-0.245961
-0.222751
-0.224975
-0.245961
-0.244724
-0.221514
-0.222751
-0.244724
-0.244475
-0.221265
-0.221514
-0.244475
-0.245213
-0.222003
-0.221265
-0.245213
-0.246939
-0.22373
-0.222003
-0.246939
-0.249653
-0.226443
-0.22373
-0.249653
-0.253355
-0.230145
-0.226443
-0.253355
-0.258044
-0.234834
-0.230145
-0.258044
-0.263721
-0.240511
-0.234834
-0.263721
-0.270385
-0.247175
-0.240511
-0.270385
-0.278037
-0.254827
-0.247175
-0.278037
-0.286677
-0.263467
-0.254827
-0.286677
-0.296305
-0.273095
-0.263467
-0.296305
-0.30692
-0.28371
-0.273095
-0.30692
-0.318522
-0.295312
-0.28371
-0.318522
-0.331113
-0.307903
-0.295312
-0.331113
-0.344691
-0.321481
-0.307903
-0.344691
-0.359256
-0.336047
-0.321481
-0.359256
-0.37481
-0.3516
-0.336047
-0.37481
-0.391351
-0.368141
-0.3516
-0.391351
-0.408879
-0.38567
-0.368141
-0.408879
-0.427396
-0.404186
-0.38567
-0.427396
-0.4469
-0.42369
-0.404186
-0.4469
-0.467391
-0.444181
-0.42369
-0.467391
-0.488871
-0.465661
-0.444181
-0.488871
-0.511338
-0.488128
-0.465661
-0.511338