# vtk DataFile Version 1.0
unstructured Grid
ASCII
DATASET UNSTRUCTURED_GRID
POINTS 23448 float 
0 0	 0.0
0.0222222 0	 0.0
0.0222222 0.0222222	 0.0
0 0.0222222	 0.0
0.0222222 0	 0.0
0.0444444 0	 0.0
0.0444444 0.0222222	 0.0
0.0222222 0.0222222	 0.0
0.0444444 0	 0.0
0.0666667 0	 0.0
0.0666667 0.0222222	 0.0
0.0444444 0.0222222	 0.0
0.0666667 0	 0.0
0.0888889 0	 0.0
0.0888889 0.0222222	 0.0
0.0666667 0.0222222	 0.0
0.0888889 0	 0.0
0.111111 0	 0.0
0.111111 0.0222222	 0.0
0.0888889 0.0222222	 0.0
0.111111 0	 0.0
0.133333 0	 0.0
0.133333 0.0222222	 0.0
0.111111 0.0222222	 0.0
0.133333 0	 0.0
0.155556 0	 0.0
0.155556 0.0222222	 0.0
0.133333 0.0222222	 0.0
0.155556 0	 0.0
0.177778 0	 0.0
0.177778 0.0222222	 0.0
0.155556 0.0222222	 0.0
0.177778 0	 0.0
0.2 0	 0.0
0.2 0.0222222	 0.0
0.177778 0.0222222	 0.0
0.2 0	 0.0
0.222222 0	 0.0
0.222222 0.0222222	 0.0
0.2 0.0222222	 0.0
0.222222 0	 0.0
0.244444 0	 0.0
0.244444 0.0222222	 0.0
0.222222 0.0222222	 0.0
0.244444 0	 0.0
0.266667 0	 0.0
0.266667 0.0222222	 0.0
0.244444 0.0222222	 0.0
0.266667 0	 0.0
0.288889 0	 0.0
0.288889 0.0222222	 0.0
0.266667 0.0222222	 0.0
0.288889 0	 0.0
0.311111 0	 0.0
0.311111 0.0222222	 0.0
0.288889 0.0222222	 0.0
0.311111 0	 0.0
0.333333 0	 0.0
0.333333 0.0222222	 0.0
0.311111 0.0222222	 0.0
0.333333 0	 0.0
0.355556 0	 0.0
0.355556 0.0222222	 0.0
0.333333 0.0222222	 0.0
0.355556 0	 0.0
0.377778 0	 0.0
0.377778 0.0222222	 0.0
0.355556 0.0222222	 0.0
0.377778 0	 0.0
0.4 0	 0.0
0.4 0.0222222	 0.0
0.377778 0.0222222	 0.0
0.4 0	 0.0
0.422222 0	 0.0
0.422222 0.0222222	 0.0
0.4 0.0222222	 0.0
0.422222 0	 0.0
0.444444 0	 0.0
0.444444 0.0222222	 0.0
0.422222 0.0222222	 0.0
0.444444 0	 0.0
0.466667 0	 0.0
0.466667 0.0222222	 0.0
0.444444 0.0222222	 0.0
0.466667 0	 0.0
0.488889 0	 0.0
0.488889 0.0222222	 0.0
0.466667 0.0222222	 0.0
0.488889 0	 0.0
0.511111 0	 0.0
0.511111 0.0222222	 0.0
0.488889 0.0222222	 0.0
0.511111 0	 0.0
0.533333 0	 0.0
0.533333 0.0222222	 0.0
0.511111 0.0222222	 0.0
0.533333 0	 0.0
0.555556 0	 0.0
0.555556 0.0222222	 0.0
0.533333 0.0222222	 0.0
0.555556 0	 0.0
0.577778 0	 0.0
0.577778 0.0222222	 0.0
0.555556 0.0222222	 0.0
0.577778 0	 0.0
0.6 0	 0.0
0.6 0.0222222	 0.0
0.577778 0.0222222	 0.0
0.6 0	 0.0
0.622222 0	 0.0
0.622222 0.0222222	 0.0
0.6 0.0222222	 0.0
0.622222 0	 0.0
0.644444 0	 0.0
0.644444 0.0222222	 0.0
0.622222 0.0222222	 0.0
0.644444 0	 0.0
0.666667 0	 0.0
0.666667 0.0222222	 0.0
0.644444 0.0222222	 0.0
0.666667 0	 0.0
0.688889 0	 0.0
0.688889 0.0222222	 0.0
0.666667 0.0222222	 0.0
0.688889 0	 0.0
0.711111 0	 0.0
0.711111 0.0222222	 0.0
0.688889 0.0222222	 0.0
0.711111 0	 0.0
0.733333 0	 0.0
0.733333 0.0222222	 0.0
0.711111 0.0222222	 0.0
0.733333 0	 0.0
0.755556 0	 0.0
0.755556 0.0222222	 0.0
0.733333 0.0222222	 0.0
0.755556 0	 0.0
0.777778 0	 0.0
0.777778 0.0222222	 0.0
0.755556 0.0222222	 0.0
0.777778 0	 0.0
0.8 0	 0.0
0.8 0.0222222	 0.0
0.777778 0.0222222	 0.0
0.8 0	 0.0
0.822222 0	 0.0
0.822222 0.0222222	 0.0
0.8 0.0222222	 0.0
0.822222 0	 0.0
0.844444 0	 0.0
0.844444 0.0222222	 0.0
0.822222 0.0222222	 0.0
0.844444 0	 0.0
0.866667 0	 0.0
0.866667 0.0222222	 0.0
0.844444 0.0222222	 0.0
0.866667 0	 0.0
0.888889 0	 0.0
0.888889 0.0222222	 0.0
0.866667 0.0222222	 0.0
0.888889 0	 0.0
0.911111 0	 0.0
0.911111 0.0222222	 0.0
0.888889 0.0222222	 0.0
0.911111 0	 0.0
0.933333 0	 0.0
0.933333 0.0222222	 0.0
0.911111 0.0222222	 0.0
0.933333 0	 0.0
0.955556 0	 0.0
0.955556 0.0222222	 0.0
0.933333 0.0222222	 0.0
0.955556 0	 0.0
0.977778 0	 0.0
0.977778 0.0222222	 0.0
0.955556 0.0222222	 0.0
0.977778 0	 0.0
1 0	 0.0
1 0.0222222	 0.0
0.977778 0.0222222	 0.0
1 0	 0.0
1.02222 0	 0.0
1.02222 0.0222222	 0.0
1 0.0222222	 0.0
1.02222 0	 0.0
1.04444 0	 0.0
1.04444 0.0222222	 0.0
1.02222 0.0222222	 0.0
1.04444 0	 0.0
1.06667 0	 0.0
1.06667 0.0222222	 0.0
1.04444 0.0222222	 0.0
1.06667 0	 0.0
1.08889 0	 0.0
1.08889 0.0222222	 0.0
1.06667 0.0222222	 0.0
1.08889 0	 0.0
1.11111 0	 0.0
1.11111 0.0222222	 0.0
1.08889 0.0222222	 0.0
1.11111 0	 0.0
1.13333 0	 0.0
1.13333 0.0222222	 0.0
1.11111 0.0222222	 0.0
1.13333 0	 0.0
1.15556 0	 0.0
1.15556 0.0222222	 0.0
1.13333 0.0222222	 0.0
1.15556 0	 0.0
1.17778 0	 0.0
1.17778 0.0222222	 0.0
1.15556 0.0222222	 0.0
1.17778 0	 0.0
1.2 0	 0.0
1.2 0.0222222	 0.0
1.17778 0.0222222	 0.0
1.2 0	 0.0
1.22222 0	 0.0
1.22222 0.0222222	 0.0
1.2 0.0222222	 0.0
1.22222 0	 0.0
1.24444 0	 0.0
1.24444 0.0222222	 0.0
1.22222 0.0222222	 0.0
1.24444 0	 0.0
1.26667 0	 0.0
1.26667 0.0222222	 0.0
1.24444 0.0222222	 0.0
1.26667 0	 0.0
1.28889 0	 0.0
1.28889 0.0222222	 0.0
1.26667 0.0222222	 0.0
1.28889 0	 0.0
1.31111 0	 0.0
1.31111 0.0222222	 0.0
1.28889 0.0222222	 0.0
1.31111 0	 0.0
1.33333 0	 0.0
1.33333 0.0222222	 0.0
1.31111 0.0222222	 0.0
1.33333 0	 0.0
1.35556 0	 0.0
1.35556 0.0222222	 0.0
1.33333 0.0222222	 0.0
1.35556 0	 0.0
1.37778 0	 0.0
1.37778 0.0222222	 0.0
1.35556 0.0222222	 0.0
1.37778 0	 0.0
1.4 0	 0.0
1.4 0.0222222	 0.0
1.37778 0.0222222	 0.0
1.4 0	 0.0
1.42222 0	 0.0
1.42222 0.0222222	 0.0
1.4 0.0222222	 0.0
1.42222 0	 0.0
1.44444 0	 0.0
1.44444 0.0222222	 0.0
1.42222 0.0222222	 0.0
1.44444 0	 0.0
1.46667 0	 0.0
1.46667 0.0222222	 0.0
1.44444 0.0222222	 0.0
1.46667 0	 0.0
1.48889 0	 0.0
1.48889 0.0222222	 0.0
1.46667 0.0222222	 0.0
1.48889 0	 0.0
1.51111 0	 0.0
1.51111 0.0222222	 0.0
1.48889 0.0222222	 0.0
1.51111 0	 0.0
1.53333 0	 0.0
1.53333 0.0222222	 0.0
1.51111 0.0222222	 0.0
1.53333 0	 0.0
1.55556 0	 0.0
1.55556 0.0222222	 0.0
1.53333 0.0222222	 0.0
1.55556 0	 0.0
1.57778 0	 0.0
1.57778 0.0222222	 0.0
1.55556 0.0222222	 0.0
1.57778 0	 0.0
1.6 0	 0.0
1.6 0.0222222	 0.0
1.57778 0.0222222	 0.0
1.6 0	 0.0
1.62222 0	 0.0
1.62222 0.0222222	 0.0
1.6 0.0222222	 0.0
1.62222 0	 0.0
1.64444 0	 0.0
1.64444 0.0222222	 0.0
1.62222 0.0222222	 0.0
1.64444 0	 0.0
1.66667 0	 0.0
1.66667 0.0222222	 0.0
1.64444 0.0222222	 0.0
1.66667 0	 0.0
1.68889 0	 0.0
1.68889 0.0222222	 0.0
1.66667 0.0222222	 0.0
1.68889 0	 0.0
1.71111 0	 0.0
1.71111 0.0222222	 0.0
1.68889 0.0222222	 0.0
1.71111 0	 0.0
1.73333 0	 0.0
1.73333 0.0222222	 0.0
1.71111 0.0222222	 0.0
1.73333 0	 0.0
1.75556 0	 0.0
1.75556 0.0222222	 0.0
1.73333 0.0222222	 0.0
1.75556 0	 0.0
1.77778 0	 0.0
1.77778 0.0222222	 0.0
1.75556 0.0222222	 0.0
1.77778 0	 0.0
1.8 0	 0.0
1.8 0.0222222	 0.0
1.77778 0.0222222	 0.0
1.8 0	 0.0
1.82222 0	 0.0
1.82222 0.0222222	 0.0
1.8 0.0222222	 0.0
1.82222 0	 0.0
1.84444 0	 0.0
1.84444 0.0222222	 0.0
1.82222 0.0222222	 0.0
1.84444 0	 0.0
1.86667 0	 0.0
1.86667 0.0222222	 0.0
1.84444 0.0222222	 0.0
1.86667 0	 0.0
1.88889 0	 0.0
1.88889 0.0222222	 0.0
1.86667 0.0222222	 0.0
1.88889 0	 0.0
1.91111 0	 0.0
1.91111 0.0222222	 0.0
1.88889 0.0222222	 0.0
1.91111 0	 0.0
1.93333 0	 0.0
1.93333 0.0222222	 0.0
1.91111 0.0222222	 0.0
1.93333 0	 0.0
1.95556 0	 0.0
1.95556 0.0222222	 0.0
1.93333 0.0222222	 0.0
1.95556 0	 0.0
1.97778 0	 0.0
1.97778 0.0222222	 0.0
1.95556 0.0222222	 0.0
1.97778 0	 0.0
2 0	 0.0
2 0.0222222	 0.0
1.97778 0.0222222	 0.0
2 0	 0.0
2.02222 0	 0.0
2.02222 0.0222222	 0.0
2 0.0222222	 0.0
2.02222 0	 0.0
2.04444 0	 0.0
2.04444 0.0222222	 0.0
2.02222 0.0222222	 0.0
2.04444 0	 0.0
2.06667 0	 0.0
2.06667 0.0222222	 0.0
2.04444 0.0222222	 0.0
2.06667 0	 0.0
2.08889 0	 0.0
2.08889 0.0222222	 0.0
2.06667 0.0222222	 0.0
2.08889 0	 0.0
2.11111 0	 0.0
2.11111 0.0222222	 0.0
2.08889 0.0222222	 0.0
2.11111 0	 0.0
2.13333 0	 0.0
2.13333 0.0222222	 0.0
2.11111 0.0222222	 0.0
2.13333 0	 0.0
2.15556 0	 0.0
2.15556 0.0222222	 0.0
2.13333 0.0222222	 0.0
2.15556 0	 0.0
2.17778 0	 0.0
2.17778 0.0222222	 0.0
2.15556 0.0222222	 0.0
2.17778 0	 0.0
2.2 0	 0.0
2.2 0.0222222	 0.0
2.17778 0.0222222	 0.0
2.2 0	 0.0
2.22222 0	 0.0
2.22222 0.0222222	 0.0
2.2 0.0222222	 0.0
2.22222 0	 0.0
2.24444 0	 0.0
2.24444 0.0222222	 0.0
2.22222 0.0222222	 0.0
2.24444 0	 0.0
2.26667 0	 0.0
2.26667 0.0222222	 0.0
2.24444 0.0222222	 0.0
2.26667 0	 0.0
2.28889 0	 0.0
2.28889 0.0222222	 0.0
2.26667 0.0222222	 0.0
2.28889 0	 0.0
2.31111 0	 0.0
2.31111 0.0222222	 0.0
2.28889 0.0222222	 0.0
2.31111 0	 0.0
2.33333 0	 0.0
2.33333 0.0222222	 0.0
2.31111 0.0222222	 0.0
2.33333 0	 0.0
2.35556 0	 0.0
2.35556 0.0222222	 0.0
2.33333 0.0222222	 0.0
2.35556 0	 0.0
2.37778 0	 0.0
2.37778 0.0222222	 0.0
2.35556 0.0222222	 0.0
2.37778 0	 0.0
2.4 0	 0.0
2.4 0.0222222	 0.0
2.37778 0.0222222	 0.0
2.4 0	 0.0
2.42222 0	 0.0
2.42222 0.0222222	 0.0
2.4 0.0222222	 0.0
2.42222 0	 0.0
2.44444 0	 0.0
2.44444 0.0222222	 0.0
2.42222 0.0222222	 0.0
2.44444 0	 0.0
2.46667 0	 0.0
2.46667 0.0222222	 0.0
2.44444 0.0222222	 0.0
2.46667 0	 0.0
2.48889 0	 0.0
2.48889 0.0222222	 0.0
2.46667 0.0222222	 0.0
2.48889 0	 0.0
2.51111 0	 0.0
2.51111 0.0222222	 0.0
2.48889 0.0222222	 0.0
2.51111 0	 0.0
2.53333 0	 0.0
2.53333 0.0222222	 0.0
2.51111 0.0222222	 0.0
2.53333 0	 0.0
2.55556 0	 0.0
2.55556 0.0222222	 0.0
2.53333 0.0222222	 0.0
2.55556 0	 0.0
2.57778 0	 0.0
2.57778 0.0222222	 0.0
2.55556 0.0222222	 0.0
2.57778 0	 0.0
2.6 0	 0.0
2.6 0.0222222	 0.0
2.57778 0.0222222	 0.0
2.6 0	 0.0
2.62222 0	 0.0
2.62222 0.0222222	 0.0
2.6 0.0222222	 0.0
2.62222 0	 0.0
2.64444 0	 0.0
2.64444 0.0222222	 0.0
2.62222 0.0222222	 0.0
2.64444 0	 0.0
2.66667 0	 0.0
2.66667 0.0222222	 0.0
2.64444 0.0222222	 0.0
2.66667 0	 0.0
2.68889 0	 0.0
2.68889 0.0222222	 0.0
2.66667 0.0222222	 0.0
2.68889 0	 0.0
2.71111 0	 0.0
2.71111 0.0222222	 0.0
2.68889 0.0222222	 0.0
2.71111 0	 0.0
2.73333 0	 0.0
2.73333 0.0222222	 0.0
2.71111 0.0222222	 0.0
2.73333 0	 0.0
2.75556 0	 0.0
2.75556 0.0222222	 0.0
2.73333 0.0222222	 0.0
2.75556 0	 0.0
2.77778 0	 0.0
2.77778 0.0222222	 0.0
2.75556 0.0222222	 0.0
2.77778 0	 0.0
2.8 0	 0.0
2.8 0.0222222	 0.0
2.77778 0.0222222	 0.0
2.8 0	 0.0
2.82222 0	 0.0
2.82222 0.0222222	 0.0
2.8 0.0222222	 0.0
2.82222 0	 0.0
2.84444 0	 0.0
2.84444 0.0222222	 0.0
2.82222 0.0222222	 0.0
2.84444 0	 0.0
2.86667 0	 0.0
2.86667 0.0222222	 0.0
2.84444 0.0222222	 0.0
2.86667 0	 0.0
2.88889 0	 0.0
2.88889 0.0222222	 0.0
2.86667 0.0222222	 0.0
2.88889 0	 0.0
2.91111 0	 0.0
2.91111 0.0222222	 0.0
2.88889 0.0222222	 0.0
2.91111 0	 0.0
[...]
POINT_DATA 23448
SCALARS levelset_first float
LOOKUP_TABLE default
-5.03611
-4.94009
-4.91392
-5.00994
-4.94009
-4.84505
-4.81888
-4.91392
-4.84505
-4.751
-4.72483
-4.81888
-4.751
-4.65794
-4.63177
-4.72483
-4.65794
-4.56587
-4.5397
-4.63177
-4.56587
-4.47478
-4.44861
-4.5397
-4.47478
-4.38468
-4.35851
-4.44861
-4.38468
-4.29557
-4.2694
-4.35851
-4.29557
-4.20745
-4.18128
-4.2694
-4.20745
-4.12031
-4.09414
-4.18128
-4.12031
-4.03417
-4.00799
-4.09414
-4.03417
-3.94901
-3.92283
-4.00799
-3.94901
-3.86483
-3.83866
-3.92283
-3.86483
-3.78165
-3.75548
-3.83866
-3.78165
-3.69945
-3.67328
-3.75548
-3.69945
-3.61824
-3.59207
-3.67328
-3.61824
-3.53802
-3.51185
-3.59207
-3.53802
-3.45878
-3.43261
-3.51185
-3.45878
-3.38054
-3.35437
-3.43261
-3.38054
-3.30328
-3.27711
-3.35437
-3.30328
-3.22701
-3.20083
-3.27711
-3.22701
-3.15172
-3.12555
-3.20083
-3.15172
-3.07743
-3.05125
-3.12555
-3.07743
-3.00412
-2.97795
-3.05125
-3.00412
-2.9318
-2.90563
-2.97795
-2.9318
-2.86047
-2.83429
-2.90563
-2.86047
-2.79012
-2.76395
-2.83429
-2.79012
-2.72076
-2.69459
-2.76395
-2.72076
-2.65239
-2.62622
-2.69459
-2.65239
-2.58501
-2.55884
-2.62622
-2.58501
-2.51861
-2.49244
-2.55884
-2.51861
-2.45321
-2.42703
-2.49244
-2.45321
-2.38879
-2.36262
-2.42703
-2.38879
-2.32536
-2.29918
-2.36262
-2.32536
-2.26291
-2.23674
-2.29918
-2.26291
-2.20146
-2.17528
-2.23674
-2.20146
-2.14099
-2.11481
-2.17528
-2.14099
-2.08151
-2.05533
-2.11481
-2.08151
-2.02301
-1.99684
-2.05533
-2.02301
-1.96551
-1.93933
-1.99684
-1.96551
-1.90899
-1.88281
-1.93933
-1.90899
-1.85346
-1.82728
-1.88281
-1.85346
-1.79891
-1.77274
-1.82728
-1.79891
-1.74536
-1.71919
-1.77274
-1.74536
-1.69279
-1.66662
-1.71919
-1.69279
-1.64121
-1.61504
-1.66662
-1.64121
-1.59062
-1.56445
-1.61504
-1.59062
-1.54101
-1.51484
-1.56445
-1.54101
-1.4924
-1.46622
-1.51484
-1.4924
-1.44477
-1.41859
-1.46622
-1.44477
-1.39813
-1.37195
-1.41859
-1.39813
-1.35247
-1.3263
-1.37195
-1.35247
-1.3078
-1.28163
-1.3263
-1.3078
-1.26413
-1.23795
-1.28163
-1.26413
-1.22143
-1.19526
-1.23795
-1.22143
-1.17973
-1.15356
-1.19526
-1.17973
-1.13902
-1.11284
-1.15356
-1.13902
-1.09929
-1.07311
-1.11284
-1.09929
-1.06055
-1.03437
-1.07311
-1.06055
-1.02279
-0.996621
-1.03437
-1.02279
-0.986029
-0.959856
-0.996621
-0.986029
-0.950251
-0.924079
-0.959856
-0.950251
-0.915462
-0.889289
-0.924079
-0.915462
-0.881659
-0.855486
-0.889289
-0.881659
-0.848845
-0.822672
-0.855486
-0.848845
-0.817018
-0.790845
-0.822672
-0.817018
-0.786178
-0.760006
-0.790845
-0.786178
-0.756327
-0.730154
-0.760006
-0.756327
-0.727463
-0.70129
-0.730154
-0.727463
-0.699587
-0.673414
-0.70129
-0.699587
-0.672698
-0.646525
-0.673414
-0.672698
-0.646797
-0.620624
-0.646525
-0.646797
-0.621884
-0.595711
-0.620624
-0.621884
-0.597958
-0.571785
-0.595711
-0.597958
-0.57502
-0.548847
-0.571785
-0.57502
-0.553069
-0.526897
-0.548847
-0.553069
-0.532107
-0.505934
-0.526897
-0.532107
-0.512132
-0.485959
-0.505934
-0.512132
-0.493144
-0.466971
-0.485959
-0.493144
-0.475144
-0.448972
-0.466971
-0.475144
-0.458132
-0.431959
-0.448972
-0.458132
-0.442108
-0.415935
-0.431959
-0.442108
-0.427071
-0.400898
-0.415935
-0.427071
-0.413022
-0.386849
-0.400898
-0.413022
-0.39996
-0.373788
-0.386849
-0.39996
-0.387887
-0.361714
-0.373788
-0.387887
-0.3768
-0.350627
-0.361714
-0.3768
-0.366702
-0.340529
-0.350627
-0.366702
-0.357591
-0.331418
-0.340529
-0.357591
-0.349468
-0.323295
-0.331418
-0.349468
-0.342332
-0.316159
-0.323295
-0.342332
-0.336184
-0.310011
-0.316159
-0.336184
-0.331024
-0.304851
-0.310011
-0.331024
-0.326851
-0.300678
-0.304851
-0.326851
-0.323666
-0.297494
-0.300678
-0.323666
-0.321469
-0.295296
-0.297494
-0.321469
-0.320259
-0.294087
-0.295296
-0.320259
-0.320037
-0.293865
-0.294087
-0.320037
-0.320803
-0.29463
-0.293865
-0.320803
-0.322556
-0.296384
-0.29463
-0.322556
-0.325297
-0.299125
-0.296384
-0.325297
-0.329026
-0.302853
-0.299125
-0.329026
-0.333742
-0.307569
-0.302853
-0.333742
-0.339446
-0.313273
-0.307569
-0.339446
-0.346138
-0.319965
-0.313273
-0.346138
-0.353817
-0.327644
-0.319965
-0.353817
-0.362484
-0.336311
-0.327644
-0.362484
-0.372138
-0.345966
-0.336311
-0.372138
-0.382781
-0.356608
-0.345966
-0.382781
-0.394411
-0.368238
-0.356608
-0.394411
-0.407028
-0.380855
-0.368238
-0.407028
-0.420633
-0.39446
-0.380855
-0.420633
-0.435226
-0.409053
-0.39446
-0.435226
-0.450806
-0.424634
-0.409053
-0.450806
-0.467375
-0.441202
-0.424634
-0.467375
-0.48493
-0.458758
-0.441202
-0.48493
-0.503474
-0.477301
-0.458758
-0.503474
-0.523005
-0.496832
-0.477301
-0.523005
-0.543524
-0.517351
-0.496832
-0.543524
-0.56503
-0.538857
-0.517351
-0.56503
-0.587524
-0.561351
-0.538857
-0.587524
-0.611006
-0.584833
-0.561351
-0.611006
-0.635475
-0.609302
-0.584833
-0.635475
-0.660932
-0.634759
-0.609302
-0.660932
-0.687377
-0.661204
-0.634759
-0.687377
-0.714809
-0.688636
-0.661204
-0.714809
-0.743229
-0.717056
-0.688636
-0.743229
-0.772637
-0.746464
-0.717056
-0.772637
-0.803032
-0.776859
-0.746464
-0.803032
-0.834415
-0.808242
-0.776859
-0.834415
-0.866786
-0.840613
-0.808242
-0.866786
-0.900144
-0.873971
-0.840613
-0.900144
-0.93449
-0.908317
-0.873971
-0.93449
-0.969823
-0.943651
-0.908317
-0.969823
-1.00614
-0.979972
-0.943651
-5.00994
-4.91392
-4.88873
-4.98476
-4.91392
-4.81888
-4.79369
-4.88873
-4.81888
-4.72483
-4.69965
-4.79369
-4.72483
-4.63177
-4.60658
-4.69965
-4.63177
-4.5397
-4.51451
-4.60658
-4.5397
-4.44861
-4.42342
-4.51451
-4.44861
-4.35851
-4.33333
-4.42342
-4.35851
-4.2694
-4.24421
-4.33333
-4.2694
-4.18128
-4.15609
-4.24421
-4.18128
-4.09414
-4.06896
-4.15609
-4.09414
-4.00799
-3.98281
-4.06896
-4.00799
-3.92283
-3.89765
-3.98281
-3.92283
-3.83866
-3.81347
-3.89765
-3.83866
-3.75548
-3.73029
-3.81347
-3.75548
-3.67328
-3.64809
-3.73029
-3.67328
-3.59207
-3.56688
-3.64809
-3.59207
-3.51185
-3.48666
-3.56688
-3.51185
-3.43261
-3.40743
-3.48666
-3.43261
-3.35437
-3.32918
-3.40743
-3.35437
-3.27711
-3.25192
-3.32918
-3.27711
-3.20083
-3.17565
-3.25192
-3.20083
-3.12555
-3.10037
-3.17565
-3.12555
-3.05125
-3.02607
-3.10037
-3.05125
-2.97795
-2.95276
-3.02607
-2.97795
-2.90563
-2.88044
-2.95276
-2.90563
-2.83429
-2.80911
-2.88044
-2.83429
-2.76395
-2.73876
-2.80911
-2.76395
-2.69459
-2.6694
-2.73876
-2.69459
-2.62622
-2.60103
-2.6694
-2.62622
-2.55884
-2.53365
-2.60103
-2.55884
-2.49244
-2.46726
-2.53365
-2.49244
-2.42703
-2.40185
-2.46726
-2.42703
-2.36262
-2.33743
-2.40185
-2.36262
-2.29918
-2.274
-2.33743
-2.29918
-2.23674
-2.21155
-2.274
-2.23674
-2.17528
-2.1501
-2.21155
-2.17528
-2.11481
-2.08963
-2.1501
-2.11481
-2.05533
-2.03015
-2.08963
-2.05533
-1.99684
-1.97165
-2.03015
-1.99684
-1.93933
-1.91415
-1.97165
-1.93933
-1.88281
-1.85763
-1.91415
-1.88281
-1.82728
-1.8021
-1.85763
-1.82728
-1.77274
-1.74756
-1.8021
-1.77274
-1.71919
-1.694
-1.74756
-1.71919
-1.66662
-1.64143
-1.694
-1.66662
-1.61504
-1.58985
-1.64143
-1.61504
-1.56445
-1.53926
-1.58985
-1.56445
-1.51484
-1.48966
-1.53926
-1.51484
-1.46622
-1.44104
-1.48966
-1.46622
-1.41859
-1.39341
-1.44104
-1.41859
-1.37195
-1.34677
-1.39341
-1.37195
-1.3263
-1.30111
-1.34677
-1.3263
-1.28163
-1.25645
-1.30111
-1.28163
-1.23795
-1.21277
-1.25645
-1.23795
-1.19526
-1.17008
-1.21277
-1.19526
-1.15356
-1.12837
-1.17008
-1.15356
-1.11284
-1.08766
-1.12837
-1.11284
-1.07311
-1.04793
-1.08766
-1.07311
-1.03437
-1.00919
-1.04793
-1.03437
-0.996621
-0.971436
-1.00919
-0.996621
-0.959856
-0.934671
-0.971436
-0.959856
-0.924079
-0.898893
-0.934671
-0.924079
-0.889289
-0.864103
-0.898893
-0.889289
-0.855486
-0.830301
-0.864103
-0.855486
-0.822672
-0.797487
-0.830301
-0.822672
-0.790845
-0.76566
-0.797487
-0.790845
-0.760006
-0.73482
-0.76566
-0.760006
-0.730154
-0.704969
-0.73482
-0.730154
-0.70129
-0.676105
-0.704969
-0.70129
-0.673414
-0.648229
-0.676105
-0.673414
-0.646525
-0.62134
-0.648229
-0.646525
-0.620624
-0.595439
-0.62134
-0.620624
-0.595711
-0.570526
-0.595439
-0.595711
-0.571785
-0.5466
-0.570526
-0.571785
-0.548847
-0.523662
-0.5466
-0.548847
-0.526897
-0.501711
-0.523662
-0.526897
-0.505934
-0.480749
-0.501711
-0.505934
-0.485959
-0.460774
-0.480749
-0.485959
-0.466971
-0.441786
-0.460774
-0.466971
-0.448972
-0.423786
-0.441786
-0.448972
-0.431959
-0.406774
-0.423786
-0.431959
-0.415935
-0.39075
-0.406774
-0.415935
-0.400898
-0.375713
-0.39075
-0.400898
-0.386849
-0.361664
-0.375713
-0.386849
-0.373788
-0.348602
-0.361664
-0.373788
-0.361714
-0.336528
-0.348602
-0.361714
-0.350627
-0.325442
-0.336528
-0.350627
-0.340529
-0.315344
-0.325442
-0.340529
-0.331418
-0.306233
-0.315344
-0.331418
-0.323295
-0.29811
-0.306233
-0.323295
-0.316159
-0.290974
-0.29811
-0.316159
-0.310011
-0.284826
-0.290974
-0.310011
-0.304851
-0.279666
-0.284826
-0.304851
-0.300678
-0.275493
-0.279666
-0.300678
-0.297494
-0.272308
-0.275493
-0.297494
-0.295296
-0.270111
-0.272308
-0.295296
-0.294087
-0.268901
-0.270111
-0.294087
-0.293865
-0.268679
-0.268901
-0.293865
-0.29463
-0.269445
-0.268679
-0.29463
-0.296384
-0.271198
-0.269445
-0.296384
-0.299125
-0.273939
-0.271198
-0.299125
-0.302853
-0.277668
-0.273939
-0.302853
-0.307569
-0.282384
-0.277668
-0.307569
-0.313273
-0.288088
-0.282384
-0.313273
-0.319965
-0.29478
-0.288088
-0.319965
-0.327644
-0.302459
-0.29478
-0.327644
-0.336311
-0.311126
-0.302459
-0.336311
-0.345966
-0.32078
-0.311126
-0.345966
-0.356608
-0.331423
-0.32078
-0.356608
-0.368238
-0.343052
-0.331423
-0.368238
-0.380855
-0.35567
-0.343052
-0.380855
-0.39446
-0.369275
-0.35567
-0.39446
-0.409053
-0.383868
-0.369275
-0.409053
-0.424634
-0.399448
-0.383868
-0.424634
-0.441202
-0.416017
-0.399448
-0.441202
-0.458758
-0.433572
-0.416017
-0.458758
-0.477301
-0.452116
-0.433572
-0.477301
-0.496832
-0.471647
-0.452116
-0.496832
-0.517351
-0.492166
-0.471647
-0.517351
-0.538857
-0.513672
-0.492166
-0.538857
-0.561351
-0.536166
-0.513672
-0.561351
-0.584833
-0.559648
-0.536166
-0.584833
-0.609302
-0.584117
-0.559648
-0.609302
-0.634759
-0.609574
-0.584117
-0.634759
-0.661204
-0.636019
-0.609574
-0.661204
-0.688636
-0.663451
-0.636019
-0.688636
-0.717056
-0.691871
-0.663451
-0.717056
-0.746464
-0.721279
-0.691871
-0.746464
-0.776859
-0.751674
-0.721279
-0.776859
-0.808242
-0.783057
-0.751674
-0.808242
-0.840613
-0.815428
-0.783057
-0.840613
-0.873971
-0.848786
-0.815428
-0.873971
-0.908317
-0.883132
-0.848786
-0.908317
-0.943651
-0.918465
-0.883132
-0.943651
-0.979972
-0.954787
-0.918465
-4.98476
-4.88873
-4.86453
-4.96056
-4.88873
-4.79369
-4.7695
-4.86453
-4.79369
-4.69965
-4.67545
-4.7695
-4.69965
-4.60658
-4.58239
-4.67545
-4.60658
-4.51451
-4.49031
-4.58239
-4.51451
-4.42342
-4.39923
-4.49031
-4.42342
-4.33333
-4.30913
-4.39923
-4.33333
-4.24421
-4.22002
-4.30913
-4.24421
-4.15609
-4.13189
-4.22002
-4.15609
-4.06896
-4.04476
-4.13189
-4.06896
-3.98281
-3.95861
-4.04476
-3.98281
-3.89765
-3.87345
-3.95861
-3.89765
-3.81347
-3.78928
-3.87345
-3.81347
-3.73029
-3.70609
-3.78928
-3.73029
-3.64809
-3.62389
-3.70609
-3.64809
-3.56688
-3.54269
-3.62389
-3.56688
-3.48666
-3.46246
-3.54269
-3.48666
-3.40743
-3.38323
-3.46246
-3.40743
-3.32918
-3.30498
-3.38323
-3.32918
-3.25192
-3.22772
-3.30498
-3.25192
-3.17565
-3.15145
-3.22772
-3.17565
-3.10037
-3.07617
-3.15145
-3.10037
-3.02607
-3.00187
-3.07617
-3.02607
-2.95276
-2.92856
-3.00187
-2.95276
-2.88044
-2.85624
-2.92856
-2.88044
-2.80911
-2.78491
-2.85624
-2.80911
-2.73876
-2.71456
-2.78491
-2.73876
-2.6694
-2.64521
-2.71456
-2.6694
-2.60103
-2.57684
-2.64521
-2.60103
-2.53365
-2.50945
-2.57684
-2.53365
-2.46726
-2.44306
-2.50945
-2.46726
-2.40185
-2.37765
-2.44306
-2.40185
-2.33743
-2.31323
-2.37765
-2.33743
-2.274
-2.2498
-2.31323
-2.274
-2.21155
-2.18736
-2.2498
-2.21155
-2.1501
-2.1259
-2.18736
-2.1501
-2.08963
-2.06543
-2.1259
-2.08963
-2.03015
-2.00595
-2.06543
-2.03015
-1.97165
-1.94746
-2.00595
-1.97165
-1.91415
-1.88995
-1.94746
-1.91415
-1.85763
-1.83343
-1.88995
-1.85763
-1.8021
-1.7779
-1.83343
-1.8021
-1.74756
-1.72336
-1.7779
-1.74756
-1.694
-1.6698
-1.72336
-1.694
-1.64143
-1.61724
-1.6698
-1.64143
-1.58985
-1.56566
-1.61724
-1.58985
-1.53926
-1.51506
-1.56566
-1.53926
-1.48966
-1.46546
-1.51506
-1.48966
-1.44104
-1.41684
-1.46546
-1.44104
-1.39341
-1.36921
-1.41684
-1.39341
-1.34677
-1.32257
-1.36921
-1.34677
-1.30111
-1.27692
-1.32257
-1.30111
-1.25645
-1.23225
-1.27692
-1.25645
-1.21277
-1.18857
-1.23225
-1.21277
-1.17008
-1.14588
-1.18857
-1.17008
-1.12837
-1.10418
-1.14588
-1.12837
-1.08766
-1.06346
-1.10418
-1.08766
-1.04793
-1.02373
-1.06346
-1.04793
-1.00919
-0.984991
-1.02373
-1.00919
-0.971436
-0.947239
-0.984991
-0.971436
-0.934671
-0.910473
-0.947239
-0.934671
-0.898893
-0.874696
-0.910473
-0.898893
-0.864103
-0.839906
-0.874696
-0.864103
-0.830301
-0.806104
-0.839906
-0.830301
-0.797487
-0.773289
-0.806104
-0.797487
-0.76566
-0.741462
-0.773289
-0.76566
-0.73482
-0.710623
-0.741462
-0.73482
-0.704969
-0.680771
-0.710623
-0.704969
-0.676105
-0.651907
-0.680771
-0.676105
-0.648229
-0.624031
-0.651907
-0.648229
-0.62134
-0.597142
-0.624031
-0.62134
-0.595439
-0.571241
-0.597142
-0.595439
-0.570526
-0.546328
-0.571241
-0.570526
-0.5466
-0.522402
-0.546328
-0.5466
-0.523662
-0.499464
-0.522402
-0.523662
-0.501711
-0.477514
-0.499464
-0.501711
-0.480749
-0.456551
-0.477514
-0.480749
-0.460774
-0.436576
-0.456551
-0.460774
-0.441786
-0.417589
-0.436576
-0.441786
-0.423786
-0.399589
-0.417589
-0.423786
-0.406774
-0.382577
-0.399589
-0.406774
-0.39075
-0.366552
-0.382577
-0.39075
-0.375713
-0.351515
-0.366552
-0.375713
-0.361664
-0.337466
-0.351515
-0.361664
-0.348602
-0.324405
-0.337466
-0.348602
-0.336528
-0.312331
-0.324405
-0.336528
-0.325442
-0.301245
-0.312331
-0.325442
-0.315344
-0.291146
-0.301245
-0.315344
-0.306233
-0.282035
-0.291146
-0.306233
-0.29811
-0.273912
-0.282035
-0.29811
-0.290974
-0.266777
-0.273912
-0.290974
-0.284826
-0.260629
-0.266777
-0.284826
-0.279666
-0.255468
-0.260629
-0.279666
-0.275493
-0.251296
-0.255468
-0.275493
-0.272308
-0.248111
-0.251296
-0.272308
-0.270111
-0.245913
-0.248111
-0.270111
-0.268901
-0.244704
-0.245913
-0.268901
-0.268679
-0.244482
-0.244704
-0.268679
-0.269445
-0.245248
-0.244482
-0.269445
-0.271198
-0.247001
-0.245248
-0.271198
-0.273939
-0.249742
-0.247001
-0.273939
-0.277668
-0.25347
-0.249742
-0.277668
-0.282384
-0.258187
-0.25347
-0.282384
-0.288088
-0.263891
-0.258187
-0.288088
-0.29478
-0.270582
-0.263891
-0.29478
-0.302459
-0.278261
-0.270582
-0.302459
-0.311126
-0.286928
-0.278261
-0.311126
-0.32078
-0.296583
-0.286928
-0.32078
-0.331423
-0.307225
-0.296583
-0.331423
-0.343052
-0.318855
-0.307225
-0.343052
-0.35567
-0.331472
-0.318855
-0.35567
-0.369275
-0.345078
-0.331472
-0.369275
-0.383868
-0.35967
-0.345078
-0.383868
-0.399448
-0.375251
-0.35967
-0.399448
-0.416017
-0.391819
-0.375251
-0.416017
-0.433572
-0.409375
-0.391819
-0.433572
-0.452116
-0.427918
-0.409375
-0.452116
-0.471647
-0.447449
-0.427918
-0.471647
-0.492166
-0.467968
-0.447449
-0.492166
-0.513672
-0.489475
-0.467968
-0.513672
-0.536166
-0.511969
-0.489475
-0.536166
-0.559648
-0.53545
-0.511969
-0.559648
-0.584117
-0.55992
-0.53545
-0.584117
-0.609574
-0.585377
-0.55992
-0.609574
-0.636019
-0.611821
-0.585377
-0.636019
-0.663451
-0.639254
-0.611821
-0.663451
-0.691871
-0.667674
-0.639254
-0.691871
-0.721279
-0.697081
-0.667674
-0.721279
-0.751674
-0.727477
-0.697081
-0.751674
-0.783057
-0.75886
-0.727477
-0.783057
-0.815428
-0.79123
-0.75886
-0.815428
-0.848786
-0.824588
-0.79123
-0.848786
-0.883132
-0.858934
-0.824588
-0.883132
-0.918465
-0.894268
-0.858934
-0.918465
-0.954787
-0.930589
-0.894268
-4.96056
-4.86453
-4.84132
-4.93735
-4.86453
-4.7695
-4.74629
-4.84132
-4.7695
-4.67545
-4.65224
-4.74629
-4.67545
-4.58239
-4.55918
-4.65224
-4.58239
-4.49031
-4.4671
-4.55918
-4.49031
-4.39923
-4.37602
-4.4671
-4.39923
-4.30913
-4.28592
-4.37602
-4.30913
-4.22002
-4.19681
-4.28592
-4.22002
-4.13189
-4.10868
-4.19681
-4.13189
-4.04476
-4.02155
-4.10868
-4.04476
-3.95861
-3.9354
-4.02155
-3.95861
-3.87345
-3.85024
-3.9354
-3.87345
-3.78928
-3.76607
-3.85024
-3.78928
-3.70609
-3.68288
-3.76607
-3.70609
-3.62389
-3.60069
-3.68288
-3.62389
-3.54269
-3.51948
-3.60069
-3.54269
-3.46246
-3.43925
-3.51948
-3.46246
-3.38323
-3.36002
-3.43925
-3.38323
-3.30498
-3.28177
-3.36002
-3.30498
-3.22772
-3.20451
-3.28177
-3.22772
-3.15145
-3.12824
-3.20451
-3.15145
-3.07617
-3.05296
-3.12824
-3.07617
-3.00187
-2.97866
-3.05296
-3.00187
-2.92856
-2.90535
-2.97866
-2.92856
-2.85624
-2.83303
-2.90535
-2.85624
-2.78491
-2.7617
-2.83303
-2.78491
-2.71456
-2.69135
-2.7617
-2.71456
-2.64521
-2.622
-2.69135
-2.64521
-2.57684
-2.55363
-2.622
-2.57684
-2.50945
-2.48624
-2.55363
-2.50945
-2.44306
-2.41985
-2.48624
-2.44306
-2.37765
-2.35444
-2.41985
-2.37765
-2.31323
-2.29002
-2.35444
-2.31323
-2.2498
-2.22659
-2.29002
-2.2498
-2.18736
-2.16415
-2.22659
-2.18736
-2.1259
-2.10269
-2.16415
-2.1259
-2.06543
-2.04222
-2.10269
-2.06543
-2.00595
-1.98274
-2.04222
-2.00595
-1.94746
-1.92425
-1.98274
-1.94746
-1.88995
-1.86674
-1.92425
-1.88995
-1.83343
-1.81022
-1.86674
-1.83343
-1.7779
-1.75469
-1.81022
-1.7779
-1.72336
-1.70015
-1.75469
-1.72336
-1.6698
-1.64659
-1.70015
-1.6698
-1.61724
-1.59403
-1.64659
-1.61724
-1.56566
-1.54245
-1.59403
-1.56566
-1.51506
-1.49185
-1.54245
-1.51506
-1.46546
-1.44225
-1.49185
-1.46546
-1.41684
-1.39363
-1.44225
-1.41684
-1.36921
-1.346
-1.39363
-1.36921
-1.32257
-1.29936
-1.346
-1.32257
-1.27692
-1.25371
-1.29936
-1.27692
-1.23225
-1.20904
-1.25371
-1.23225
-1.18857
-1.16536
-1.20904
-1.18857
-1.14588
-1.12267
-1.16536
-1.14588
-1.10418
-1.08097
-1.12267
-1.10418
-1.06346
-1.04025
-1.08097
-1.06346
-1.02373
-1.00052
-1.04025
-1.02373
-0.984991
-0.961782
-1.00052
-0.984991
-0.947239
-0.924029
-0.961782
-0.947239
-0.910473
-0.887264
-0.924029
-0.910473
-0.874696
-0.851486
-0.887264
-0.874696
-0.839906
-0.816696
-0.851486
-0.839906
-0.806104
-0.782894
-0.816696
-0.806104
-0.773289
-0.750079
-0.782894
-0.773289
-0.741462
-0.718252
-0.750079
-0.741462
-0.710623
-0.687413
-0.718252
-0.710623
-0.680771
-0.657561
-0.687413
-0.680771
-0.651907
-0.628697
-0.657561
-0.651907
-0.624031
-0.600821
-0.628697
-0.624031
-0.597142
-0.573932
-0.600821
-0.597142
-0.571241
-0.548031
-0.573932
-0.571241
-0.546328
-0.523118
-0.548031
-0.546328
-0.522402
-0.499192
-0.523118
-0.522402
-0.499464
-0.476254
-0.499192
-0.499464
-0.477514
-0.454304
-0.476254
-0.477514
-0.456551
-0.433341
-0.454304
-0.456551
-0.436576
-0.413366
-0.433341
-0.436576
-0.417589
-0.394379
-0.413366
-0.417589
-0.399589
-0.376379
-0.394379
-0.399589
-0.382577
-0.359367
-0.376379
-0.382577
-0.366552
-0.343342
-0.359367
-0.366552
-0.351515
-0.328306
-0.343342
-0.351515
-0.337466
-0.314256
-0.328306
-0.337466
-0.324405
-0.301195
-0.314256
-0.324405
-0.312331
-0.289121
-0.301195
-0.312331
-0.301245
-0.278035
-0.289121
-0.301245
-0.291146
-0.267936
-0.278035
-0.291146
-0.282035
-0.258825
-0.267936
-0.282035
-0.273912
-0.250702
-0.258825
-0.273912
-0.266777
-0.243567
-0.250702
-0.266777
-0.260629
-0.237419
-0.243567
-0.260629
-0.255468
-0.232258
-0.237419
-0.255468
-0.251296
-0.228086
-0.232258
-0.251296
-0.248111
-0.224901
-0.228086
-0.248111
-0.245913
-0.222704
-0.224901
-0.245913
-0.244704
-0.221494
-0.222704
-0.244704
-0.244482
-0.221272
-0.221494
-0.244482
-0.245248
-0.222038
-0.221272
-0.245248
-0.247001
-0.223791
-0.222038
-0.247001
-0.249742
-0.226532
-0.223791
-0.249742
-0.25347
-0.230261
-0.226532
-0.25347
-0.258187
-0.234977
-0.230261
-0.258187
-0.263891
-0.240681
-0.234977
-0.263891
-0.270582
-0.247372
-0.240681
-0.270582
-0.278261
-0.255052
-0.247372
-0.278261
-0.286928
-0.263718
-0.255052
-0.286928
-0.296583
-0.273373
-0.263718
-0.296583
-0.307225
-0.284015
-0.273373
-0.307225
-0.318855
-0.295645
-0.284015
-0.318855
-0.331472
-0.308263
-0.295645
-0.331472
-0.345078
-0.321868
-0.308263
-0.345078
-0.35967
-0.336461
-0.321868
-0.35967
-0.375251
-0.352041
-0.336461
-0.375251
-0.391819
-0.368609
-0.352041
-0.391819
-0.409375
-0.386165
-0.368609
-0.409375
-0.427918
-0.404708
-0.386165
-0.427918
-0.447449
-0.42424
-0.404708
-0.447449
-0.467968
-0.444758
-0.42424
-0.467968
-0.489475
-0.466265
-0.444758
-0.489475
-0.511969
-0.488759
-0.466265
-0.511969