# vtk DataFile Version 1.0
unstructured Grid
ASCII
DATASET UNSTRUCTURED_GRID
POINTS 23440 float 
0 0	 0.0
0.0222222 0	 0.0
0.0222222 0.0222222	 0.0
0 0.0222222	 0.0
0.0222222 0	 0.0
0.0444444 0	 0.0
0.0444444 0.0222222	 0.0
0.0222222 0.0222222	 0.0
0.0444444 0	 0.0
0.0666667 0	 0.0
0.0666667 0.0222222	 0.0
0.0444444 0.0222222	 0.0
0.0666667 0	 0.0
0.0888889 0	 0.0
0.0888889 0.0222222	 0.0
0.0666667 0.0222222	 0.0
0.0888889 0	 0.0
0.111111 0	 0.0
0.111111 0.0222222	 0.0
0.0888889 0.0222222	 0.0
0.111111 0	 0.0
0.133333 0	 0.0
0.133333 0.0222222	 0.0
0.111111 0.0222222	 0.0
0.133333 0	 0.0
0.155556 0	 0.0
0.155556 0.0222222	 0.0
0.133333 0.0222222	 0.0
0.155556 0	 0.0
0.177778 0	 0.0
0.177778 0.0222222	 0.0
0.155556 0.0222222	 0.0
0.177778 0	 0.0
0.2 0	 0.0
0.2 0.0222222	 0.0
0.177778 0.0222222	 0.0
0.2 0	 0.0
0.222222 0	 0.0
0.222222 0.0222222	 0.0
0.2 0.0222222	 0.0
0.222222 0	 0.0
0.244444 0	 0.0
0.244444 0.0222222	 0.0
0.222222 0.0222222	 0.0
0.244444 0	 0.0
0.266667 0	 0.0
0.266667 0.0222222	 0.0
0.244444 0.0222222	 0.0
0.266667 0	 0.0
0.288889 0	 0.0
0.288889 0.0222222	 0.0
0.266667 0.0222222	 0.0
0.288889 0	 0.0
0.311111 0	 0.0
0.311111 0.0222222	 0.0
0.288889 0.0222222	 0.0
0.311111 0	 0.0
0.333333 0	 0.0
0.333333 0.0222222	 0.0
0.311111 0.0222222	 0.0
0.333333 0	 0.0
0.355556 0	 0.0
0.355556 0.0222222	 0.0
0.333333 0.0222222	 0.0
0.355556 0	 0.0
0.377778 0	 0.0
0.377778 0.0222222	 0.0
0.355556 0.0222222	 0.0
0.377778 0	 0.0
0.4 0	 0.0
0.4 0.0222222	 0.0
0.377778 0.0222222	 0.0
0.4 0	 0.0
0.422222 0	 0.0
0.422222 0.0222222	 0.0
0.4 0.0222222	 0.0
0.422222 0	 0.0
0.444444 0	 0.0
0.444444 0.0222222	 0.0
0.422222 0.0222222	 0.0
0.444444 0	 0.0
0.466667 0	 0.0
0.466667 0.0222222	 0.0
0.444444 0.0222222	 0.0
0.466667 0	 0.0
0.488889 0	 0.0
0.488889 0.0222222	 0.0
0.466667 0.0222222	 0.0
0.488889 0	 0.0
0.511111 0	 0.0
0.511111 0.0222222	 0.0
0.488889 0.0222222	 0.0
0.511111 0	 0.0
0.533333 0	 0.0
0.533333 0.0222222	 0.0
0.511111 0.0222222	 0.0
0.533333 0	 0.0
0.555556 0	 0.0
0.555556 0.0222222	 0.0
0.533333 0.0222222	 0.0
0.555556 0	 0.0
0.577778 0	 0.0
0.577778 0.0222222	 0.0
0.555556 0.0222222	 0.0
0.577778 0	 0.0
0.6 0	 0.0
0.6 0.0222222	 0.0
0.577778 0.0222222	 0.0
0.6 0	 0.0
0.622222 0	 0.0
0.622222 0.0222222	 0.0
0.6 0.0222222	 0.0
0.622222 0	 0.0
0.644444 0	 0.0
0.644444 0.0222222	 0.0
0.622222 0.0222222	 0.0
0.644444 0	 0.0
0.666667 0	 0.0
0.666667 0.0222222	 0.0
0.644444 0.0222222	 0.0
0.666667 0	 0.0
0.688889 0	 0.0
0.688889 0.0222222	 0.0
0.666667 0.0222222	 0.0
0.688889 0	 0.0
0.711111 0	 0.0
0.711111 0.0222222	 0.0
0.688889 0.0222222	 0.0
0.711111 0	 0.0
0.733333 0	 0.0
0.733333 0.0222222	 0.0
0.711111 0.0222222	 0.0
0.733333 0	 0.0
0.755556 0	 0.0
0.755556 0.0222222	 0.0
0.733333 0.0222222	 0.0
0.755556 0	 0.0
0.777778 0	 0.0
0.777778 0.0222222	 0.0
0.755556 0.0222222	 0.0
0.777778 0	 0.0
0.8 0	 0.0
0.8 0.0222222	 0.0
0.777778 0.0222222	 0.0
0.8 0	 0.0
0.822222 0	 0.0
0.822222 0.0222222	 0.0
0.8 0.0222222	 0.0
0.822222 0	 0.0
0.844444 0	 0.0
0.844444 0.0222222	 0.0
0.822222 0.0222222	 0.0
0.844444 0	 0.0
0.866667 0	 0.0
0.866667 0.0222222	 0.0
0.844444 0.0222222	 0.0
0.866667 0	 0.0
0.888889 0	 0.0
0.888889 0.0222222	 0.0
0.866667 0.0222222	 0.0
0.888889 0	 0.0
0.911111 0	 0.0
0.911111 0.0222222	 0.0
0.888889 0.0222222	 0.0
0.911111 0	 0.0
0.933333 0	 0.0
0.933333 0.0222222	 0.0
0.911111 0.0222222	 0.0
0.933333 0	 0.0
0.955556 0	 0.0
0.955556 0.0222222	 0.0
0.933333 0.0222222	 0.0
0.955556 0	 0.0
0.977778 0	 0.0
0.977778 0.0222222	 0.0
0.955556 0.0222222	 0.0
0.977778 0	 0.0
1 0	 0.0
1 0.0222222	 0.0
0.977778 0.0222222	 0.0
1 0	 0.0
1.02222 0	 0.0
1.02222 0.0222222	 0.0
1 0.0222222	 0.0
1.02222 0	 0.0
1.04444 0	 0.0
1.04444 0.0222222	 0.0
1.02222 0.0222222	 0.0
1.04444 0	 0.0
1.06667 0	 0.0
1.06667 0.0222222	 0.0
1.04444 0.0222222	 0.0
1.06667 0	 0.0
1.08889 0	 0.0
1.08889 0.0222222	 0.0
1.06667 0.0222222	 0.0
1.08889 0	 0.0
1.11111 0	 0.0
1.11111 0.0222222	 0.0
1.08889 0.0222222	 0.0
1.11111 0	 0.0
1.13333 0	 0.0
1.13333 0.0222222	 0.0
1.11111 0.0222222	 0.0
1.13333 0	 0.0
1.15556 0	 0.0
1.15556 0.0222222	 0.0
1.13333 0.0222222	 0.0
1.15556 0	 0.0
1.17778 0	 0.0
1.17778 0.0222222	 0.0
1.15556 0.0222222	 0.0
1.17778 0	 0.0
1.2 0	 0.0
1.2 0.0222222	 0.0
1.17778 0.0222222	 0.0
1.2 0	 0.0
1.22222 0	 0.0
1.22222 0.0222222	 0.0
1.2 0.0222222	 0.0
1.22222 0	 0.0
1.24444 0	 0.0
1.24444 0.0222222	 0.0
1.22222 0.0222222	 0.0
1.24444 0	 0.0
1.26667 0	 0.0
1.26667 0.0222222	 0.0
1.24444 0.0222222	 0.0
1.26667 0	 0.0
1.28889 0	 0.0
1.28889 0.0222222	 0.0
1.26667 0.0222222	 0.0
1.28889 0	 0.0
1.31111 0	 0.0
1.31111 0.0222222	 0.0
1.28889 0.0222222	 0.0
1.31111 0	 0.0
1.33333 0	 0.0
1.33333 0.0222222	 0.0
1.31111 0.0222222	 0.0
1.33333 0	 0.0
1.35556 0	 0.0
1.35556 0.0222222	 0.0
1.33333 0.0222222	 0.0
1.35556 0	 0.0
1.37778 0	 0.0
1.37778 0.0222222	 0.0
1.35556 0.0222222	 0.0
1.37778 0	 0.0
1.4 0	 0.0
1.4 0.0222222	 0.0
1.37778 0.0222222	 0.0
1.4 0	 0.0
1.42222 0	 0.0
1.42222 0.0222222	 0.0
1.4 0.0222222	 0.0
1.42222 0	 0.0
1.44444 0	 0.0
1.44444 0.0222222	 0.0
1.42222 0.0222222	 0.0
1.44444 0	 0.0
1.46667 0	 0.0
1.46667 0.0222222	 0.0
1.44444 0.0222222	 0.0
1.46667 0	 0.0
1.48889 0	 0.0
1.48889 0.0222222	 0.0
1.46667 0.0222222	 0.0
1.48889 0	 0.0
1.51111 0	 0.0
1.51111 0.0222222	 0.0
1.48889 0.0222222	 0.0
1.51111 0	 0.0
1.53333 0	 0.0
1.53333 0.0222222	 0.0
1.51111 0.0222222	 0.0
1.53333 0	 0.0
1.55556 0	 0.0
1.55556 0.0222222	 0.0
1.53333 0.0222222	 0.0
1.55556 0	 0.0
1.57778 0	 0.0
1.57778 0.0222222	 0.0
1.55556 0.0222222	 0.0
1.57778 0	 0.0
1.6 0	 0.0
1.6 0.0222222	 0.0
1.57778 0.0222222	 0.0
1.6 0	 0.0
1.62222 0	 0.0
1.62222 0.0222222	 0.0
1.6 0.0222222	 0.0
1.62222 0	 0.0
1.64444 0	 0.0
1.64444 0.0222222	 0.0
1.62222 0.0222222	 0.0
1.64444 0	 0.0
1.66667 0	 0.0
1.66667 0.0222222	 0.0
1.64444 0.0222222	 0.0
1.66667 0	 0.0
1.68889 0	 0.0
1.68889 0.0222222	 0.0
1.66667 0.0222222	 0.0
1.68889 0	 0.0
1.71111 0	 0.0
1.71111 0.0222222	 0.0
1.68889 0.0222222	 0.0
1.71111 0	 0.0
1.73333 0	 0.0
1.73333 0.0222222	 0.0
1.71111 0.0222222	 0.0
1.73333 0	 0.0
1.75556 0	 0.0
1.75556 0.0222222	 0.0
1.73333 0.0222222	 0.0
1.75556 0	 0.0
1.77778 0	 0.0
1.77778 0.0222222	 0.0
1.75556 0.0222222	 0.0
1.77778 0	 0.0
1.8 0	 0.0
1.8 0.0222222	 0.0
1.77778 0.0222222	 0.0
1.8 0	 0.0
1.82222 0	 0.0
1.82222 0.0222222	 0.0
1.8 0.0222222	 0.0
1.82222 0	 0.0
1.84444 0	 0.0
1.84444 0.0222222	 0.0
1.82222 0.0222222	 0.0
1.84444 0	 0.0
1.86667 0	 0.0
1.86667 0.0222222	 0.0
1.84444 0.0222222	 0.0
1.86667 0	 0.0
1.88889 0	 0.0
1.88889 0.0222222	 0.0
1.86667 0.0222222	 0.0
1.88889 0	 0.0
1.91111 0	 0.0
1.91111 0.0222222	 0.0
1.88889 0.0222222	 0.0
1.91111 0	 0.0
1.93333 0	 0.0
1.93333 0.0222222	 0.0
1.91111 0.0222222	 0.0
1.93333 0	 0.0
1.95556 0	 0.0
1.95556 0.0222222	 0.0
1.93333 0.0222222	 0.0
1.95556 0	 0.0
1.97778 0	 0.0
1.97778 0.0222222	 0.0
1.95556 0.0222222	 0.0
1.97778 0	 0.0
2 0	 0.0
2 0.0222222	 0.0
1.97778 0.0222222	 0.0
2 0	 0.0
2.02222 0	 0.0
2.02222 0.0222222	 0.0
2 0.0222222	 0.0
2.02222 0	 0.0
2.04444 0	 0.0
2.04444 0.0222222	 0.0
2.02222 0.0222222	 0.0
2.04444 0	 0.0
2.06667 0	 0.0
2.06667 0.0222222	 0.0
2.04444 0.0222222	 0.0
2.06667 0	 0.0
2.08889 0	 0.0
2.08889 0.0222222	 0.0
2.06667 0.0222222	 0.0
2.08889 0	 0.0
2.11111 0	 0.0
2.11111 0.0222222	 0.0
2.08889 0.0222222	 0.0
2.11111 0	 0.0
2.13333 0	 0.0
2.13333 0.0222222	 0.0
2.11111 0.0222222	 0.0
2.13333 0	 0.0
2.15556 0	 0.0
2.15556 0.0222222	 0.0
2.13333 0.0222222	 0.0
2.15556 0	 0.0
2.17778 0	 0.0
2.17778 0.0222222	 0.0
2.15556 0.0222222	 0.0
2.17778 0	 0.0
2.2 0	 0.0
2.2 0.0222222	 0.0
2.17778 0.0222222	 0.0
2.2 0	 0.0
2.22222 0	 0.0
2.22222 0.0222222	 0.0
2.2 0.0222222	 0.0
2.22222 0	 0.0
2.24444 0	 0.0
2.24444 0.0222222	 0.0
2.22222 0.0222222	 0.0
2.24444 0	 0.0
2.26667 0	 0.0
2.26667 0.0222222	 0.0
2.24444 0.0222222	 0.0
2.26667 0	 0.0
2.28889 0	 0.0
2.28889 0.0222222	 0.0
2.26667 0.0222222	 0.0
2.28889 0	 0.0
2.31111 0	 0.0
2.31111 0.0222222	 0.0
2.28889 0.0222222	 0.0
2.31111 0	 0.0
2.33333 0	 0.0
2.33333 0.0222222	 0.0
2.31111 0.0222222	 0.0
2.33333 0	 0.0
2.35556 0	 0.0
2.35556 0.0222222	 0.0
2.33333 0.0222222	 0.0
2.35556 0	 0.0
2.37778 0	 0.0
2.37778 0.0222222	 0.0
2.35556 0.0222222	 0.0
2.37778 0	 0.0
2.4 0	 0.0
2.4 0.0222222	 0.0
2.37778 0.0222222	 0.0
2.4 0	 0.0
2.42222 0	 0.0
2.42222 0.0222222	 0.0
2.4 0.0222222	 0.0
2.42222 0	 0.0
2.44444 0	 0.0
2.44444 0.0222222	 0.0
2.42222 0.0222222	 0.0
2.44444 0	 0.0
2.46667 0	 0.0
2.46667 0.0222222	 0.0
2.44444 0.0222222	 0.0
2.46667 0	 0.0
2.48889 0	 0.0
2.48889 0.0222222	 0.0
2.46667 0.0222222	 0.0
2.48889 0	 0.0
2.51111 0	 0.0
2.51111 0.0222222	 0.0
2.48889 0.0222222	 0.0
2.51111 0	 0.0
2.53333 0	 0.0
2.53333 0.0222222	 0.0
2.51111 0.0222222	 0.0
2.53333 0	 0.0
2.55556 0	 0.0
2.55556 0.0222222	 0.0
2.53333 0.0222222	 0.0
2.55556 0	 0.0
2.57778 0	 0.0
2.57778 0.0222222	 0.0
2.55556 0.0222222	 0.0
2.57778 0	 0.0
2.6 0	 0.0
2.6 0.0222222	 0.0
2.57778 0.0222222	 0.0
2.6 0	 0.0
2.62222 0	 0.0
2.62222 0.0222222	 0.0
2.6 0.0222222	 0.0
2.62222 0	 0.0
2.64444 0	 0.0
2.64444 0.0222222	 0.0
2.62222 0.0222222	 0.0
2.64444 0	 0.0
2.66667 0	 0.0
2.66667 0.0222222	 0.0
2.64444 0.0222222	 0.0
2.66667 0	 0.0
2.68889 0	 0.0
2.68889 0.0222222	 0.0
2.66667 0.0222222	 0.0
2.68889 0	 0.0
2.71111 0	 0.0
2.71111 0.0222222	 0.0
2.68889 0.0222222	 0.0
2.71111 0	 0.0
2.73333 0	 0.0
2.73333 0.0222222	 0.0
2.71111 0.0222222	 0.0
2.73333 0	 0.0
2.75556 0	 0.0
2.75556 0.0222222	 0.0
2.73333 0.0222222	 0.0
2.75556 0	 0.0
2.77778 0	 0.0
2.77778 0.0222222	 0.0
2.75556 0.0222222	 0.0
2.77778 0	 0.0
2.8 0	 0.0
2.8 0.0222222	 0.0
2.77778 0.0222222	 0.0
2.8 0	 0.0
2.82222 0	 0.0
2.82222 0.0222222	 0.0
2.8 0.0222222	 0.0
2.82222 0	 0.0
2.84444 0	 0.0
2.84444 0.0222222	 0.0
2.82222 0.0222222	 0.0
2.84444 0	 0.0
2.86667 0	 0.0
2.86667 0.0222222	 0.0
2.84444 0.0222222	 0.0
2.86667 0	 0.0
2.88889 0	 0.0
2.88889 0.0222222	 0.0
2.86667 0.0222222	 0.0
2.88889 0	 0.0
2.91111 0	 0.0
2.91111 0.0222222	 0.0
2.88889 0.0222222	 0.0
2.91111 0	 0.0
[...]
POINT_DATA 23440
SCALARS levelset_first float
LOOKUP_TABLE default
-5.7878
-5.68436
-5.65819
-5.76162
-5.68436
-5.58192
-5.55575
-5.65819
-5.58192
-5.48046
-5.45429
-5.55575
-5.48046
-5.37999
-5.35382
-5.45429
-5.37999
-5.28051
-5.25434
-5.35382
-5.28051
-5.18202
-5.15585
-5.25434
-5.18202
-5.08451
-5.05834
-5.15585
-5.08451
-4.98799
-4.96182
-5.05834
-4.98799
-4.89246
-4.86629
-4.96182
-4.89246
-4.79792
-4.77175
-4.86629
-4.79792
-4.70436
-4.67819
-4.77175
-4.70436
-4.6118
-4.58562
-4.67819
-4.6118
-4.52022
-4.49404
-4.58562
-4.52022
-4.42962
-4.40345
-4.49404
-4.42962
-4.34002
-4.31385
-4.40345
-4.34002
-4.2514
-4.22523
-4.31385
-4.2514
-4.16377
-4.1376
-4.22523
-4.16377
-4.07713
-4.05096
-4.1376
-4.07713
-3.99148
-3.9653
-4.05096
-3.99148
-3.90681
-3.88064
-3.9653
-3.90681
-3.82313
-3.79696
-3.88064
-3.82313
-3.74044
-3.71427
-3.79696
-3.74044
-3.65874
-3.63256
-3.71427
-3.65874
-3.57802
-3.55185
-3.63256
-3.57802
-3.49829
-3.47212
-3.55185
-3.49829
-3.41955
-3.39338
-3.47212
-3.41955
-3.3418
-3.31562
-3.39338
-3.3418
-3.26503
-3.23886
-3.31562
-3.26503
-3.18925
-3.16308
-3.23886
-3.18925
-3.11446
-3.08829
-3.16308
-3.11446
-3.04066
-3.01449
-3.08829
-3.04066
-2.96785
-2.94167
-3.01449
-2.96785
-2.89602
-2.86985
-2.94167
-2.89602
-2.82518
-2.79901
-2.86985
-2.82518
-2.75533
-2.72916
-2.79901
-2.75533
-2.68646
-2.66029
-2.72916
-2.68646
-2.61859
-2.59242
-2.66029
-2.61859
-2.5517
-2.52553
-2.59242
-2.5517
-2.4858
-2.45963
-2.52553
-2.4858
-2.42088
-2.39471
-2.45963
-2.42088
-2.35696
-2.33079
-2.39471
-2.35696
-2.29402
-2.26785
-2.33079
-2.29402
-2.23207
-2.2059
-2.26785
-2.23207
-2.17111
-2.14493
-2.2059
-2.17111
-2.11113
-2.08496
-2.14493
-2.11113
-2.05214
-2.02597
-2.08496
-2.05214
-1.99414
-1.96797
-2.02597
-1.99414
-1.93713
-1.91096
-1.96797
-1.93713
-1.88111
-1.85493
-1.91096
-1.88111
-1.82607
-1.7999
-1.85493
-1.82607
-1.77202
-1.74585
-1.7999
-1.77202
-1.71896
-1.69279
-1.74585
-1.71896
-1.66689
-1.64071
-1.69279
-1.66689
-1.6158
-1.58963
-1.64071
-1.6158
-1.5657
-1.53953
-1.58963
-1.5657
-1.51659
-1.49042
-1.53953
-1.51659
-1.46847
-1.44229
-1.49042
-1.46847
-1.42133
-1.39516
-1.44229
-1.42133
-1.37518
-1.34901
-1.39516
-1.37518
-1.33002
-1.30385
-1.34901
-1.33002
-1.28585
-1.25968
-1.30385
-1.28585
-1.24266
-1.21649
-1.25968
-1.24266
-1.20047
-1.17429
-1.21649
-1.20047
-1.15926
-1.13308
-1.17429
-1.15926
-1.11903
-1.09286
-1.13308
-1.11903
-1.0798
-1.05363
-1.09286
-1.0798
-1.04155
-1.01538
-1.05363
-1.04155
-1.00429
-0.978121
-1.01538
-1.00429
-0.968023
-0.94185
-0.978121
-0.968023
-0.932739
-0.906566
-0.94185
-0.932739
-0.898442
-0.87227
-0.906566
-0.898442
-0.865134
-0.838961
-0.87227
-0.865134
-0.832813
-0.80664
-0.838961
-0.832813
-0.80148
-0.775307
-0.80664
-0.80148
-0.771134
-0.744961
-0.775307
-0.771134
-0.741776
-0.715603
-0.744961
-0.741776
-0.713406
-0.687233
-0.715603
-0.713406
-0.686023
-0.65985
-0.687233
-0.686023
-0.659628
-0.633455
-0.65985
-0.659628
-0.634221
-0.608048
-0.633455
-0.634221
-0.609801
-0.583628
-0.608048
-0.609801
-0.586369
-0.560196
-0.583628
-0.586369
-0.563925
-0.537752
-0.560196
-0.563925
-0.542468
-0.516295
-0.537752
-0.542468
-0.521999
-0.495826
-0.516295
-0.521999
-0.502518
-0.476345
-0.495826
-0.502518
-0.484024
-0.457851
-0.476345
-0.484024
-0.466518
-0.440345
-0.457851
-0.466518
-0.449999
-0.423826
-0.440345
-0.449999
-0.434468
-0.408296
-0.423826
-0.434468
-0.419925
-0.393752
-0.408296
-0.419925
-0.40637
-0.380197
-0.393752
-0.40637
-0.393802
-0.367629
-0.380197
-0.393802
-0.382222
-0.356049
-0.367629
-0.382222
-0.371629
-0.345456
-0.356049
-0.371629
-0.362024
-0.335852
-0.345456
-0.362024
-0.353407
-0.327234
-0.335852
-0.353407
-0.345778
-0.319605
-0.327234
-0.345778
-0.339136
-0.312963
-0.319605
-0.339136
-0.333481
-0.307309
-0.312963
-0.333481
-0.328815
-0.302642
-0.307309
-0.328815
-0.325136
-0.298963
-0.302642
-0.325136
-0.322445
-0.296272
-0.298963
-0.322445
-0.320741
-0.294568
-0.296272
-0.320741
-0.320025
-0.293852
-0.294568
-0.320025
-0.320297
-0.294124
-0.293852
-0.320297
-0.321556
-0.295383
-0.294124
-0.321556
-0.323803
-0.29763
-0.295383
-0.323803
-0.327038
-0.300865
-0.29763
-0.327038
-0.33126
-0.305087
-0.300865
-0.33126
-0.33647
-0.310297
-0.305087
-0.33647
-0.342667
-0.316495
-0.310297
-0.342667
-0.349853
-0.32368
-0.316495
-0.349853
-0.358026
-0.331853
-0.32368
-0.358026
-0.367186
-0.341013
-0.331853
-0.367186
-0.377334
-0.351162
-0.341013
-0.377334
-0.38847
-0.362297
-0.351162
-0.38847
-0.400594
-0.374421
-0.362297
-0.400594
-0.413705
-0.387532
-0.374421
-0.413705
-0.427804
-0.401631
-0.387532
-0.427804
-0.44289
-0.416717
-0.401631
-0.44289
-0.458964
-0.432792
-0.416717
-0.458964
-0.476026
-0.449853
-0.432792
-0.476026
-0.494076
-0.467903
-0.449853
-0.494076
-0.513113
-0.48694
-0.467903
-0.513113
-0.533137
-0.506965
-0.48694
-0.533137
-0.55415
-0.527977
-0.506965
-0.55415
-0.57615
-0.549977
-0.527977
-0.57615
-0.599138
-0.572965
-0.549977
-0.599138
-0.623113
-0.59694
-0.572965
-0.623113
-0.648076
-0.621903
-0.59694
-0.648076
-0.674027
-0.647854
-0.621903
-0.674027
-0.700965
-0.674792
-0.647854
-0.700965
-0.728891
-0.702718
-0.674792
-0.728891
-0.757805
-0.731632
-0.702718
-5.76162
-5.65819
-5.63301
-5.73644
-5.65819
-5.55575
-5.53056
-5.63301
-5.55575
-5.45429
-5.4291
-5.53056
-5.45429
-5.35382
-5.32864
-5.4291
-5.35382
-5.25434
-5.22915
-5.32864
-5.25434
-5.15585
-5.13066
-5.22915
-5.15585
-5.05834
-5.03315
-5.13066
-5.05834
-4.96182
-4.93664
-5.03315
-4.96182
-4.86629
-4.84111
-4.93664
-4.86629
-4.77175
-4.74656
-4.84111
-4.77175
-4.67819
-4.65301
-4.74656
-4.67819
-4.58562
-4.56044
-4.65301
-4.58562
-4.49404
-4.46886
-4.56044
-4.49404
-4.40345
-4.37827
-4.46886
-4.40345
-4.31385
-4.28866
-4.37827
-4.31385
-4.22523
-4.20004
-4.28866
-4.22523
-4.1376
-4.11241
-4.20004
-4.1376
-4.05096
-4.02577
-4.11241
-4.05096
-3.9653
-3.94012
-4.02577
-3.9653
-3.88064
-3.85545
-3.94012
-3.88064
-3.79696
-3.77177
-3.85545
-3.79696
-3.71427
-3.68908
-3.77177
-3.71427
-3.63256
-3.60738
-3.68908
-3.63256
-3.55185
-3.52666
-3.60738
-3.55185
-3.47212
-3.44693
-3.52666
-3.47212
-3.39338
-3.36819
-3.44693
-3.39338
-3.31562
-3.29044
-3.36819
-3.31562
-3.23886
-3.21367
-3.29044
-3.23886
-3.16308
-3.1379
-3.21367
-3.16308
-3.08829
-3.06311
-3.1379
-3.08829
-3.01449
-2.9893
-3.06311
-3.01449
-2.94167
-2.91649
-2.9893
-2.94167
-2.86985
-2.84466
-2.91649
-2.86985
-2.79901
-2.77382
-2.84466
-2.79901
-2.72916
-2.70397
-2.77382
-2.72916
-2.66029
-2.63511
-2.70397
-2.66029
-2.59242
-2.56723
-2.63511
-2.59242
-2.52553
-2.50034
-2.56723
-2.52553
-2.45963
-2.43444
-2.50034
-2.45963
-2.39471
-2.36953
-2.43444
-2.39471
-2.33079
-2.3056
-2.36953
-2.33079
-2.26785
-2.24266
-2.3056
-2.26785
-2.2059
-2.18071
-2.24266
-2.2059
-2.14493
-2.11975
-2.18071
-2.14493
-2.08496
-2.05977
-2.11975
-2.08496
-2.02597
-2.00079
-2.05977
-2.02597
-1.96797
-1.94279
-2.00079
-1.96797
-1.91096
-1.88577
-1.94279
-1.91096
-1.85493
-1.82975
-1.88577
-1.85493
-1.7999
-1.77471
-1.82975
-1.7999
-1.74585
-1.72066
-1.77471
-1.74585
-1.69279
-1.6676
-1.72066
-1.69279
-1.64071
-1.61553
-1.6676
-1.64071
-1.58963
-1.56444
-1.61553
-1.58963
-1.53953
-1.51434
-1.56444
-1.53953
-1.49042
-1.46523
-1.51434
-1.49042
-1.44229
-1.41711
-1.46523
-1.44229
-1.39516
-1.36997
-1.41711
-1.39516
-1.34901
-1.32382
-1.36997
-1.34901
-1.30385
-1.27866
-1.32382
-1.30385
-1.25968
-1.23449
-1.27866
-1.25968
-1.21649
-1.19131
-1.23449
-1.21649
-1.17429
-1.14911
-1.19131
-1.17429
-1.13308
-1.1079
-1.14911
-1.13308
-1.09286
-1.06768
-1.1079
-1.09286
-1.05363
-1.02844
-1.06768
-1.05363
-1.01538
-0.990195
-1.02844
-1.01538
-0.978121
-0.952936
-0.990195
-0.978121
-0.94185
-0.916665
-0.952936
-0.94185
-0.906566
-0.881381
-0.916665
-0.906566
-0.87227
-0.847084
-0.881381
-0.87227
-0.838961
-0.813776
-0.847084
-0.838961
-0.80664
-0.781455
-0.813776
-0.80664
-0.775307
-0.750122
-0.781455
-0.775307
-0.744961
-0.719776
-0.750122
-0.744961
-0.715603
-0.690418
-0.719776
-0.715603
-0.687233
-0.662048
-0.690418
-0.687233
-0.65985
-0.634665
-0.662048
-0.65985
-0.633455
-0.60827
-0.634665
-0.633455
-0.608048
-0.582863
-0.60827
-0.608048
-0.583628
-0.558443
-0.582863
-0.583628
-0.560196
-0.535011
-0.558443
-0.560196
-0.537752
-0.512567
-0.535011
-0.537752
-0.516295
-0.49111
-0.512567
-0.516295
-0.495826
-0.470641
-0.49111
-0.495826
-0.476345
-0.45116
-0.470641
-0.476345
-0.457851
-0.432666
-0.45116
-0.457851
-0.440345
-0.41516
-0.432666
-0.440345
-0.423826
-0.398641
-0.41516
-0.423826
-0.408296
-0.38311
-0.398641
-0.408296
-0.393752
-0.368567
-0.38311
-0.393752
-0.380197
-0.355012
-0.368567
-0.380197
-0.367629
-0.342444
-0.355012
-0.367629
-0.356049
-0.330864
-0.342444
-0.356049
-0.345456
-0.320271
-0.330864
-0.345456
-0.335852
-0.310666
-0.320271
-0.335852
-0.327234
-0.302049
-0.310666
-0.327234
-0.319605
-0.29442
-0.302049
-0.319605
-0.312963
-0.287778
-0.29442
-0.312963
-0.307309
-0.282123
-0.287778
-0.307309
-0.302642
-0.277457
-0.282123
-0.302642
-0.298963
-0.273778
-0.277457
-0.298963
-0.296272
-0.271087
-0.273778
-0.296272
-0.294568
-0.269383
-0.271087
-0.294568
-0.293852
-0.268667
-0.269383
-0.293852
-0.294124
-0.268939
-0.268667
-0.294124
-0.295383
-0.270198
-0.268939
-0.295383
-0.29763
-0.272445
-0.270198
-0.29763
-0.300865
-0.27568
-0.272445
-0.300865
-0.305087
-0.279902
-0.27568
-0.305087
-0.310297
-0.285112
-0.279902
-0.310297
-0.316495
-0.291309
-0.285112
-0.316495
-0.32368
-0.298495
-0.291309
-0.32368
-0.331853
-0.306668
-0.298495
-0.331853
-0.341013
-0.315828
-0.306668
-0.341013
-0.351162
-0.325976
-0.315828
-0.351162
-0.362297
-0.337112
-0.325976
-0.362297
-0.374421
-0.349236
-0.337112
-0.374421
-0.387532
-0.362347
-0.349236
-0.387532
-0.401631
-0.376446
-0.362347
-0.401631
-0.416717
-0.391532
-0.376446
-0.416717
-0.432792
-0.407606
-0.391532
-0.432792
-0.449853
-0.424668
-0.407606
-0.449853
-0.467903
-0.442718
-0.424668
-0.467903
-0.48694
-0.461755
-0.442718
-0.48694
-0.506965
-0.481779
-0.461755
-0.506965
-0.527977
-0.502792
-0.481779
-0.527977
-0.549977
-0.524792
-0.502792
-0.549977
-0.572965
-0.54778
-0.524792
-0.572965
-0.59694
-0.571755
-0.54778
-0.59694
-0.621903
-0.596718
-0.571755
-0.621903
-0.647854
-0.622669
-0.596718
-0.647854
-0.674792
-0.649607
-0.622669
-0.674792
-0.702718
-0.677533
-0.649607
-0.702718
-0.731632
-0.706447
-0.677533
-5.73644
-5.63301
-5.60881
-5.71224
-5.63301
-5.53056
-5.50636
-5.60881
-5.53056
-5.4291
-5.40491
-5.50636
-5.4291
-5.32864
-5.30444
-5.40491
-5.32864
-5.22915
-5.20496
-5.30444
-5.22915
-5.13066
-5.10646
-5.20496
-5.13066
-5.03315
-5.00896
-5.10646
-5.03315
-4.93664
-4.91244
-5.00896
-4.93664
-4.84111
-4.81691
-4.91244
-4.84111
-4.74656
-4.72236
-4.81691
-4.74656
-4.65301
-4.62881
-4.72236
-4.65301
-4.56044
-4.53624
-4.62881
-4.56044
-4.46886
-4.44466
-4.53624
-4.46886
-4.37827
-4.35407
-4.44466
-4.37827
-4.28866
-4.26446
-4.35407
-4.28866
-4.20004
-4.17585
-4.26446
-4.20004
-4.11241
-4.08822
-4.17585
-4.11241
-4.02577
-4.00157
-4.08822
-4.02577
-3.94012
-3.91592
-4.00157
-3.94012
-3.85545
-3.83125
-3.91592
-3.85545
-3.77177
-3.74757
-3.83125
-3.77177
-3.68908
-3.66488
-3.74757
-3.68908
-3.60738
-3.58318
-3.66488
-3.60738
-3.52666
-3.50246
-3.58318
-3.52666
-3.44693
-3.42274
-3.50246
-3.44693
-3.36819
-3.344
-3.42274
-3.36819
-3.29044
-3.26624
-3.344
-3.29044
-3.21367
-3.18948
-3.26624
-3.21367
-3.1379
-3.1137
-3.18948
-3.1379
-3.06311
-3.03891
-3.1137
-3.06311
-2.9893
-2.96511
-3.03891
-2.9893
-2.91649
-2.89229
-2.96511
-2.91649
-2.84466
-2.82046
-2.89229
-2.84466
-2.77382
-2.74963
-2.82046
-2.77382
-2.70397
-2.67977
-2.74963
-2.70397
-2.63511
-2.61091
-2.67977
-2.63511
-2.56723
-2.54303
-2.61091
-2.56723
-2.50034
-2.47614
-2.54303
-2.50034
-2.43444
-2.41024
-2.47614
-2.43444
-2.36953
-2.34533
-2.41024
-2.36953
-2.3056
-2.2814
-2.34533
-2.3056
-2.24266
-2.21847
-2.2814
-2.24266
-2.18071
-2.15651
-2.21847
-2.18071
-2.11975
-2.09555
-2.15651
-2.11975
-2.05977
-2.03558
-2.09555
-2.05977
-2.00079
-1.97659
-2.03558
-2.00079
-1.94279
-1.91859
-1.97659
-1.94279
-1.88577
-1.86158
-1.91859
-1.88577
-1.82975
-1.80555
-1.86158
-1.82975
-1.77471
-1.75052
-1.80555
-1.77471
-1.72066
-1.69647
-1.75052
-1.72066
-1.6676
-1.6434
-1.69647
-1.6676
-1.61553
-1.59133
-1.6434
-1.61553
-1.56444
-1.54024
-1.59133
-1.56444
-1.51434
-1.49015
-1.54024
-1.51434
-1.46523
-1.44103
-1.49015
-1.46523
-1.41711
-1.39291
-1.44103
-1.41711
-1.36997
-1.34577
-1.39291
-1.36997
-1.32382
-1.29963
-1.34577
-1.32382
-1.27866
-1.25447
-1.29963
-1.27866
-1.23449
-1.21029
-1.25447
-1.23449
-1.19131
-1.16711
-1.21029
-1.19131
-1.14911
-1.12491
-1.16711
-1.14911
-1.1079
-1.0837
-1.12491
-1.1079
-1.06768
-1.04348
-1.0837
-1.06768
-1.02844
-1.00424
-1.04348
-1.02844
-0.990195
-0.965998
-1.00424
-0.990195
-0.952936
-0.928739
-0.965998
-0.952936
-0.916665
-0.892467
-0.928739
-0.916665
-0.881381
-0.857183
-0.892467
-0.881381
-0.847084
-0.822887
-0.857183
-0.847084
-0.813776
-0.789578
-0.822887
-0.813776
-0.781455
-0.757257
-0.789578
-0.781455
-0.750122
-0.725924
-0.757257
-0.750122
-0.719776
-0.695579
-0.725924
-0.719776
-0.690418
-0.666221
-0.695579
-0.690418
-0.662048
-0.63785
-0.666221
-0.662048
-0.634665
-0.610468
-0.63785
-0.634665
-0.60827
-0.584073
-0.610468
-0.60827
-0.582863
-0.558665
-0.584073
-0.582863
-0.558443
-0.534246
-0.558665
-0.558443
-0.535011
-0.510814
-0.534246
-0.535011
-0.512567
-0.488369
-0.510814
-0.512567
-0.49111
-0.466912
-0.488369
-0.49111
-0.470641
-0.446443
-0.466912
-0.470641
-0.45116
-0.426962
-0.446443
-0.45116
-0.432666
-0.408468
-0.426962
-0.432666
-0.41516
-0.390962
-0.408468
-0.41516
-0.398641
-0.374444
-0.390962
-0.398641
-0.38311
-0.358913
-0.374444
-0.38311
-0.368567
-0.34437
-0.358913
-0.368567
-0.355012
-0.330814
-0.34437
-0.355012
-0.342444
-0.318246
-0.330814
-0.342444
-0.330864
-0.306666
-0.318246
-0.330864
-0.320271
-0.296074
-0.306666
-0.320271
-0.310666
-0.286469
-0.296074
-0.310666
-0.302049
-0.277852
-0.286469
-0.302049
-0.29442
-0.270222
-0.277852
-0.29442
-0.287778
-0.26358
-0.270222
-0.287778
-0.282123
-0.257926
-0.26358
-0.282123
-0.277457
-0.253259
-0.257926
-0.277457
-0.273778
-0.24958
-0.253259
-0.273778
-0.271087
-0.246889
-0.24958
-0.271087
-0.269383
-0.245185
-0.246889
-0.269383
-0.268667
-0.244469
-0.245185
-0.268667
-0.268939
-0.244741
-0.244469
-0.268939
-0.270198
-0.246
-0.244741
-0.270198
-0.272445
-0.248247
-0.246
-0.272445
-0.27568
-0.251482
-0.248247
-0.27568
-0.279902
-0.255704
-0.251482
-0.279902
-0.285112
-0.260914
-0.255704
-0.285112
-0.291309
-0.267112
-0.260914
-0.291309
-0.298495
-0.274297
-0.267112
-0.298495
-0.306668
-0.28247
-0.274297
-0.306668
-0.315828
-0.291631
-0.28247
-0.315828
-0.325976
-0.301779
-0.291631
-0.325976
-0.337112
-0.312915
-0.301779
-0.337112
-0.349236
-0.325038
-0.312915
-0.349236
-0.362347
-0.338149
-0.325038
-0.362347
-0.376446
-0.352248
-0.338149
-0.376446
-0.391532
-0.367335
-0.352248
-0.391532
-0.407606
-0.383409
-0.367335
-0.407606
-0.424668
-0.400471
-0.383409
-0.424668
-0.442718
-0.41852
-0.400471
-0.442718
-0.461755
-0.437557
-0.41852
-0.461755
-0.481779
-0.457582
-0.437557
-0.481779
-0.502792
-0.478594
-0.457582
-0.502792
-0.524792
-0.500594
-0.478594
-0.524792
-0.54778
-0.523582
-0.500594
-0.54778
-0.571755
-0.547557
-0.523582
-0.571755
-0.596718
-0.572521
-0.547557
-0.596718
-0.622669
-0.598471
-0.572521
-0.622669
-0.649607
-0.62541
-0.598471
-0.649607
-0.677533
-0.653336
-0.62541
-0.677533
-0.706447
-0.682249
-0.653336
-5.71224
-5.60881
-5.5856
-5.68903
-5.60881
-5.50636
-5.48315
-5.5856
-5.50636
-5.40491
-5.3817
-5.48315
-5.40491
-5.30444
-5.28123
-5.3817
-5.30444
-5.20496
-5.18175
-5.28123
-5.20496
-5.10646
-5.08325
-5.18175
-5.10646
-5.00896
-4.98575
-5.08325
-5.00896
-4.91244
-4.88923
-4.98575
-4.91244
-4.81691
-4.7937
-4.88923
-4.81691
-4.72236
-4.69915
-4.7937
-4.72236
-4.62881
-4.6056
-4.69915
-4.62881
-4.53624
-4.51303
-4.6056
-4.53624
-4.44466
-4.42145
-4.51303
-4.44466
-4.35407
-4.33086
-4.42145
-4.35407
-4.26446
-4.24125
-4.33086
-4.26446
-4.17585
-4.15264
-4.24125
-4.17585
-4.08822
-4.06501
-4.15264
-4.08822
-4.00157
-3.97836
-4.06501
-4.00157
-3.91592
-3.89271
-3.97836
-3.91592
-3.83125
-3.80804
-3.89271
-3.83125
-3.74757
-3.72437
-3.80804
-3.74757
-3.66488
-3.64167
-3.72437
-3.66488
-3.58318
-3.55997
-3.64167
-3.58318
-3.50246
-3.47925
-3.55997
-3.50246
-3.42274
-3.39953
-3.47925
-3.42274
-3.344
-3.32079
-3.39953
-3.344
-3.26624
-3.24303
-3.32079
-3.26624
-3.18948
-3.16627
-3.24303
-3.18948
-3.1137
-3.09049
-3.16627
-3.1137
-3.03891
-3.0157
-3.09049
-3.03891
-2.96511
-2.9419
-3.0157
-2.96511
-2.89229
-2.86908
-2.9419
-2.89229
-2.82046
-2.79725
-2.86908
-2.82046
-2.74963
-2.72642
-2.79725
-2.74963
-2.67977
-2.65656
-2.72642
-2.67977
-2.61091
-2.5877
-2.65656
-2.61091
-2.54303
-2.51982
-2.5877
-2.54303
-2.47614
-2.45293
-2.51982
-2.47614
-2.41024
-2.38703
-2.45293
-2.41024
-2.34533
-2.32212
-2.38703
-2.34533
-2.2814
-2.25819
-2.32212
-2.2814
-2.21847
-2.19526
-2.25819
-2.21847
-2.15651
-2.1333
-2.19526
-2.15651
-2.09555
-2.07234
-2.1333
-2.09555
-2.03558
-2.01237
-2.07234
-2.03558
-1.97659
-1.95338
-2.01237
-1.97659
-1.91859
-1.89538
-1.95338
-1.91859
-1.86158
-1.83837
-1.89538
-1.86158
-1.80555
-1.78234
-1.83837
-1.80555
-1.75052
-1.72731
-1.78234
-1.75052
-1.69647
-1.67326
-1.72731
-1.69647
-1.6434
-1.62019
-1.67326
-1.6434
-1.59133
-1.56812
-1.62019
-1.59133
-1.54024
-1.51703
-1.56812
-1.54024
-1.49015
-1.46694
-1.51703
-1.49015
-1.44103
-1.41782
-1.46694
-1.44103
-1.39291
-1.3697
-1.41782
-1.39291
-1.34577
-1.32257
-1.3697
-1.34577
-1.29963
-1.27642
-1.32257
-1.29963
-1.25447
-1.23126
-1.27642
-1.25447
-1.21029
-1.18708
-1.23126
-1.21029
-1.16711
-1.1439
-1.18708
-1.16711
-1.12491
-1.1017
-1.1439
-1.12491
-1.0837
-1.06049
-1.1017
-1.0837
-1.04348
-1.02027
-1.06049
-1.04348
-1.00424
-0.981035
-1.02027
-1.00424
-0.965998
-0.942788
-0.981035
-0.965998
-0.928739
-0.905529
-0.942788
-0.928739
-0.892467
-0.869257
-0.905529
-0.892467
-0.857183
-0.833973
-0.869257
-0.857183
-0.822887
-0.799677
-0.833973
-0.822887
-0.789578
-0.766368
-0.799677
-0.789578
-0.757257
-0.734048
-0.766368
-0.757257
-0.725924
-0.702714
-0.734048
-0.725924
-0.695579
-0.672369
-0.702714
-0.695579
-0.666221
-0.643011
-0.672369
-0.666221
-0.63785
-0.61464
-0.643011
-0.63785
-0.610468
-0.587258
-0.61464
-0.610468
-0.584073
-0.560863
-0.587258
-0.584073
-0.558665
-0.535455
-0.560863
-0.558665
-0.534246
-0.511036
-0.535455
-0.534246
-0.510814
-0.487604
-0.511036
-0.510814
-0.488369
-0.465159
-0.487604
-0.488369
-0.466912
-0.443703
-0.465159
-0.466912
-0.446443
-0.423234
-0.443703
-0.446443
-0.426962
-0.403752
-0.423234
-0.426962
-0.408468
-0.385258
-0.403752
-0.408468
-0.390962
-0.367752
-0.385258
-0.390962
-0.374444
-0.351234
-0.367752
-0.374444
-0.358913
-0.335703
-0.351234
-0.358913
-0.34437
-0.32116
-0.335703
-0.34437
-0.330814
-0.307604
-0.32116
-0.330814
-0.318246
-0.295037
-0.307604
-0.318246
-0.306666
-0.283456
-0.295037
-0.306666
-0.296074
-0.272864
-0.283456
-0.296074
-0.286469
-0.263259
-0.272864
-0.286469
-0.277852
-0.254642
-0.263259
-0.277852
-0.270222
-0.247012
-0.254642
-0.270222
-0.26358
-0.24037
-0.247012
-0.26358
-0.257926
-0.234716
-0.24037
-0.257926
-0.253259
-0.230049
-0.234716
-0.253259
-0.24958
-0.22637
-0.230049
-0.24958
-0.246889
-0.223679
-0.22637
-0.246889
-0.245185
-0.221976
-0.223679
-0.245185
-0.244469
-0.22126
-0.221976
-0.244469
-0.244741
-0.221531
-0.22126
-0.244741
-0.246
-0.222791
-0.221531
-0.246
-0.248247
-0.225038
-0.222791
-0.248247
-0.251482
-0.228272
-0.225038
-0.251482
-0.255704
-0.232494
-0.228272
-0.255704
-0.260914
-0.237704
-0.232494
-0.260914
-0.267112
-0.243902
-0.237704
-0.267112
-0.274297
-0.251087
-0.243902
-0.274297
-0.28247
-0.25926
-0.251087
-0.28247
-0.291631
-0.268421
-0.25926
-0.291631
-0.301779
-0.278569
-0.268421
-0.301779
-0.312915
-0.289705
-0.278569
-0.312915
-0.325038
-0.301828
-0.289705
-0.325038
-0.338149
-0.314939
-0.301828
-0.338149
-0.352248
-0.329038
-0.314939
-0.352248
-0.367335
-0.344125
-0.329038
-0.367335
-0.383409
-0.360199
-0.344125
-0.383409
-0.400471
-0.377261
-0.360199
-0.400471
-0.41852
-0.39531
-0.377261
-0.41852
-0.437557
-0.414347
-0.39531
-0.437557
-0.457582
-0.434372