# vtk DataFile Version 1.0
unstructured Grid
ASCII
DATASET UNSTRUCTURED_GRID
POINTS 23424 float 
0 0	 0.0
0.0222222 0	 0.0
0.0222222 0.0222222	 0.0
0 0.0222222	 0.0
0.0222222 0	 0.0
0.0444444 0	 0.0
0.0444444 0.0222222	 0.0
0.0222222 0.0222222	 0.0
0.0444444 0	 0.0
0.0666667 0	 0.0
0.0666667 0.0222222	 0.0
0.0444444 0.0222222	 0.0
0.0666667 0	 0.0
0.0888889 0	 0.0
0.0888889 0.0222222	 0.0
0.0666667 0.0222222	 0.0
0.0888889 0	 0.0
0.111111 0	 0.0
0.111111 0.0222222	 0.0
0.0888889 0.0222222	 0.0
0.111111 0	 0.0
0.133333 0	 0.0
0.133333 0.0222222	 0.0
0.111111 0.0222222	 0.0
0.133333 0	 0.0
0.155556 0	 0.0
0.155556 0.0222222	 0.0
0.133333 0.0222222	 0.0
0.155556 0	 0.0
0.177778 0	 0.0
0.177778 0.0222222	 0.0
0.155556 0.0222222	 0.0
0.177778 0	 0.0
0.2 0	 0.0
0.2 0.0222222	 0.0
0.177778 0.0222222	 0.0
0.2 0	 0.0
0.222222 0	 0.0
0.222222 0.0222222	 0.0
0.2 0.0222222	 0.0
0.222222 0	 0.0
0.244444 0	 0.0
0.244444 0.0222222	 0.0
0.222222 0.0222222	 0.0
0.244444 0	 0.0
0.266667 0	 0.0
0.266667 0.0222222	 0.0
0.244444 0.0222222	 0.0
0.266667 0	 0.0
0.288889 0	 0.0
0.288889 0.0222222	 0.0
0.266667 0.0222222	 0.0
0.288889 0	 0.0
0.311111 0	 0.0
0.311111 0.0222222	 0.0
0.288889 0.0222222	 0.0
0.311111 0	 0.0
0.333333 0	 0.0
0.333333 0.0222222	 0.0
0.311111 0.0222222	 0.0
0.333333 0	 0.0
0.355556 0	 0.0
0.355556 0.0222222	 0.0
0.333333 0.0222222	 0.0
0.355556 0	 0.0
0.377778 0	 0.0
0.377778 0.0222222	 0.0
0.355556 0.0222222	 0.0
0.377778 0	 0.0
0.4 0	 0.0
0.4 0.0222222	 0.0
0.377778 0.0222222	 0.0
0.4 0	 0.0
0.422222 0	 0.0
0.422222 0.0222222	 0.0
0.4 0.0222222	 0.0
0.422222 0	 0.0
0.444444 0	 0.0
0.444444 0.0222222	 0.0
0.422222 0.0222222	 0.0
0.444444 0	 0.0
0.466667 0	 0.0
0.466667 0.0222222	 0.0
0.444444 0.0222222	 0.0
0.466667 0	 0.0
0.488889 0	 0.0
0.488889 0.0222222	 0.0
0.466667 0.0222222	 0.0
0.488889 0	 0.0
0.511111 0	 0.0
0.511111 0.0222222	 0.0
0.488889 0.0222222	 0.0
0.511111 0	 0.0
0.533333 0	 0.0
0.533333 0.0222222	 0.0
0.511111 0.0222222	 0.0
0.533333 0	 0.0
0.555556 0	 0.0
0.555556 0.0222222	 0.0
0.533333 0.0222222	 0.0
0.555556 0	 0.0
0.577778 0	 0.0
0.577778 0.0222222	 0.0
0.555556 0.0222222	 0.0
0.577778 0	 0.0
0.6 0	 0.0
0.6 0.0222222	 0.0
0.577778 0.0222222	 0.0
0.6 0	 0.0
0.622222 0	 0.0
0.622222 0.0222222	 0.0
0.6 0.0222222	 0.0
0.622222 0	 0.0
0.644444 0	 0.0
0.644444 0.0222222	 0.0
0.622222 0.0222222	 0.0
0.644444 0	 0.0
0.666667 0	 0.0
0.666667 0.0222222	 0.0
0.644444 0.0222222	 0.0
0.666667 0	 0.0
0.688889 0	 0.0
0.688889 0.0222222	 0.0
0.666667 0.0222222	 0.0
0.688889 0	 0.0
0.711111 0	 0.0
0.711111 0.0222222	 0.0
0.688889 0.0222222	 0.0
0.711111 0	 0.0
0.733333 0	 0.0
0.733333 0.0222222	 0.0
0.711111 0.0222222	 0.0
0.733333 0	 0.0
0.755556 0	 0.0
0.755556 0.0222222	 0.0
0.733333 0.0222222	 0.0
0.755556 0	 0.0
0.777778 0	 0.0
0.777778 0.0222222	 0.0
0.755556 0.0222222	 0.0
0.777778 0	 0.0
0.8 0	 0.0
0.8 0.0222222	 0.0
0.777778 0.0222222	 0.0
0.8 0	 0.0
0.822222 0	 0.0
0.822222 0.0222222	 0.0
0.8 0.0222222	 0.0
0.822222 0	 0.0
0.844444 0	 0.0
0.844444 0.0222222	 0.0
0.822222 0.0222222	 0.0
0.844444 0	 0.0
0.866667 0	 0.0
0.866667 0.0222222	 0.0
0.844444 0.0222222	 0.0
0.866667 0	 0.0
0.888889 0	 0.0
0.888889 0.0222222	 0.0
0.866667 0.0222222	 0.0
0.888889 0	 0.0
0.911111 0	 0.0
0.911111 0.0222222	 0.0
0.888889 0.0222222	 0.0
0.911111 0	 0.0
0.933333 0	 0.0
0.933333 0.0222222	 0.0
0.911111 0.0222222	 0.0
0.933333 0	 0.0
0.955556 0	 0.0
0.955556 0.0222222	 0.0
0.933333 0.0222222	 0.0
0.955556 0	 0.0
0.977778 0	 0.0
0.977778 0.0222222	 0.0
0.955556 0.0222222	 0.0
0.977778 0	 0.0
1 0	 0.0
1 0.0222222	 0.0
0.977778 0.0222222	 0.0
1 0	 0.0
1.02222 0	 0.0
1.02222 0.0222222	 0.0
1 0.0222222	 0.0
1.02222 0	 0.0
1.04444 0	 0.0
1.04444 0.0222222	 0.0
1.02222 0.0222222	 0.0
1.04444 0	 0.0
1.06667 0	 0.0
1.06667 0.0222222	 0.0
1.04444 0.0222222	 0.0
1.06667 0	 0.0
1.08889 0	 0.0
1.08889 0.0222222	 0.0
1.06667 0.0222222	 0.0
1.08889 0	 0.0
1.11111 0	 0.0
1.11111 0.0222222	 0.0
1.08889 0.0222222	 0.0
1.11111 0	 0.0
1.13333 0	 0.0
1.13333 0.0222222	 0.0
1.11111 0.0222222	 0.0
1.13333 0	 0.0
1.15556 0	 0.0
1.15556 0.0222222	 0.0
1.13333 0.0222222	 0.0
1.15556 0	 0.0
1.17778 0	 0.0
1.17778 0.0222222	 0.0
1.15556 0.0222222	 0.0
1.17778 0	 0.0
1.2 0	 0.0
1.2 0.0222222	 0.0
1.17778 0.0222222	 0.0
1.2 0	 0.0
1.22222 0	 0.0
1.22222 0.0222222	 0.0
1.2 0.0222222	 0.0
1.22222 0	 0.0
1.24444 0	 0.0
1.24444 0.0222222	 0.0
1.22222 0.0222222	 0.0
1.24444 0	 0.0
1.26667 0	 0.0
1.26667 0.0222222	 0.0
1.24444 0.0222222	 0.0
1.26667 0	 0.0
1.28889 0	 0.0
1.28889 0.0222222	 0.0
1.26667 0.0222222	 0.0
1.28889 0	 0.0
1.31111 0	 0.0
1.31111 0.0222222	 0.0
1.28889 0.0222222	 0.0
1.31111 0	 0.0
1.33333 0	 0.0
1.33333 0.0222222	 0.0
1.31111 0.0222222	 0.0
1.33333 0	 0.0
1.35556 0	 0.0
1.35556 0.0222222	 0.0
1.33333 0.0222222	 0.0
1.35556 0	 0.0
1.37778 0	 0.0
1.37778 0.0222222	 0.0
1.35556 0.0222222	 0.0
1.37778 0	 0.0
1.4 0	 0.0
1.4 0.0222222	 0.0
1.37778 0.0222222	 0.0
1.4 0	 0.0
1.42222 0	 0.0
1.42222 0.0222222	 0.0
1.4 0.0222222	 0.0
1.42222 0	 0.0
1.44444 0	 0.0
1.44444 0.0222222	 0.0
1.42222 0.0222222	 0.0
1.44444 0	 0.0
1.46667 0	 0.0
1.46667 0.0222222	 0.0
1.44444 0.0222222	 0.0
1.46667 0	 0.0
1.48889 0	 0.0
1.48889 0.0222222	 0.0
1.46667 0.0222222	 0.0
1.48889 0	 0.0
1.51111 0	 0.0
1.51111 0.0222222	 0.0
1.48889 0.0222222	 0.0
1.51111 0	 0.0
1.53333 0	 0.0
1.53333 0.0222222	 0.0
1.51111 0.0222222	 0.0
1.53333 0	 0.0
1.55556 0	 0.0
1.55556 0.0222222	 0.0
1.53333 0.0222222	 0.0
1.55556 0	 0.0
1.57778 0	 0.0
1.57778 0.0222222	 0.0
1.55556 0.0222222	 0.0
1.57778 0	 0.0
1.6 0	 0.0
1.6 0.0222222	 0.0
1.57778 0.0222222	 0.0
1.6 0	 0.0
1.62222 0	 0.0
1.62222 0.0222222	 0.0
1.6 0.0222222	 0.0
1.62222 0	 0.0
1.64444 0	 0.0
1.64444 0.0222222	 0.0
1.62222 0.0222222	 0.0
1.64444 0	 0.0
1.66667 0	 0.0
1.66667 0.0222222	 0.0
1.64444 0.0222222	 0.0
1.66667 0	 0.0
1.68889 0	 0.0
1.68889 0.0222222	 0.0
1.66667 0.0222222	 0.0
1.68889 0	 0.0
1.71111 0	 0.0
1.71111 0.0222222	 0.0
1.68889 0.0222222	 0.0
1.71111 0	 0.0
1.73333 0	 0.0
1.73333 0.0222222	 0.0
1.71111 0.0222222	 0.0
1.73333 0	 0.0
1.75556 0	 0.0
1.75556 0.0222222	 0.0
1.73333 0.0222222	 0.0
1.75556 0	 0.0
1.77778 0	 0.0
1.77778 0.0222222	 0.0
1.75556 0.0222222	 0.0
1.77778 0	 0.0
1.8 0	 0.0
1.8 0.0222222	 0.0
1.77778 0.0222222	 0.0
1.8 0	 0.0
1.82222 0	 0.0
1.82222 0.0222222	 0.0
1.8 0.0222222	 0.0
1.82222 0	 0.0
1.84444 0	 0.0
1.84444 0.0222222	 0.0
1.82222 0.0222222	 0.0
1.84444 0	 0.0
1.86667 0	 0.0
1.86667 0.0222222	 0.0
1.84444 0.0222222	 0.0
1.86667 0	 0.0
1.88889 0	 0.0
1.88889 0.0222222	 0.0
1.86667 0.0222222	 0.0
1.88889 0	 0.0
1.91111 0	 0.0
1.91111 0.0222222	 0.0
1.88889 0.0222222	 0.0
1.91111 0	 0.0
1.93333 0	 0.0
1.93333 0.0222222	 0.0
1.91111 0.0222222	 0.0
1.93333 0	 0.0
1.95556 0	 0.0
1.95556 0.0222222	 0.0
1.93333 0.0222222	 0.0
1.95556 0	 0.0
1.97778 0	 0.0
1.97778 0.0222222	 0.0
1.95556 0.0222222	 0.0
1.97778 0	 0.0
2 0	 0.0
2 0.0222222	 0.0
1.97778 0.0222222	 0.0
2 0	 0.0
2.02222 0	 0.0
2.02222 0.0222222	 0.0
2 0.0222222	 0.0
2.02222 0	 0.0
2.04444 0	 0.0
2.04444 0.0222222	 0.0
2.02222 0.0222222	 0.0
2.04444 0	 0.0
2.06667 0	 0.0
2.06667 0.0222222	 0.0
2.04444 0.0222222	 0.0
2.06667 0	 0.0
2.08889 0	 0.0
2.08889 0.0222222	 0.0
2.06667 0.0222222	 0.0
2.08889 0	 0.0
2.11111 0	 0.0
2.11111 0.0222222	 0.0
2.08889 0.0222222	 0.0
2.11111 0	 0.0
2.13333 0	 0.0
2.13333 0.0222222	 0.0
2.11111 0.0222222	 0.0
2.13333 0	 0.0
2.15556 0	 0.0
2.15556 0.0222222	 0.0
2.13333 0.0222222	 0.0
2.15556 0	 0.0
2.17778 0	 0.0
2.17778 0.0222222	 0.0
2.15556 0.0222222	 0.0
2.17778 0	 0.0
2.2 0	 0.0
2.2 0.0222222	 0.0
2.17778 0.0222222	 0.0
2.2 0	 0.0
2.22222 0	 0.0
2.22222 0.0222222	 0.0
2.2 0.0222222	 0.0
2.22222 0	 0.0
2.24444 0	 0.0
2.24444 0.0222222	 0.0
2.22222 0.0222222	 0.0
2.24444 0	 0.0
2.26667 0	 0.0
2.26667 0.0222222	 0.0
2.24444 0.0222222	 0.0
2.26667 0	 0.0
2.28889 0	 0.0
2.28889 0.0222222	 0.0
2.26667 0.0222222	 0.0
2.28889 0	 0.0
2.31111 0	 0.0
2.31111 0.0222222	 0.0
2.28889 0.0222222	 0.0
2.31111 0	 0.0
2.33333 0	 0.0
2.33333 0.0222222	 0.0
2.31111 0.0222222	 0.0
2.33333 0	 0.0
2.35556 0	 0.0
2.35556 0.0222222	 0.0
2.33333 0.0222222	 0.0
2.35556 0	 0.0
2.37778 0	 0.0
2.37778 0.0222222	 0.0
2.35556 0.0222222	 0.0
2.37778 0	 0.0
2.4 0	 0.0
2.4 0.0222222	 0.0
2.37778 0.0222222	 0.0
2.4 0	 0.0
2.42222 0	 0.0
2.42222 0.0222222	 0.0
2.4 0.0222222	 0.0
2.42222 0	 0.0
2.44444 0	 0.0
2.44444 0.0222222	 0.0
2.42222 0.0222222	 0.0
2.44444 0	 0.0
2.46667 0	 0.0
2.46667 0.0222222	 0.0
2.44444 0.0222222	 0.0
2.46667 0	 0.0
2.48889 0	 0.0
2.48889 0.0222222	 0.0
2.46667 0.0222222	 0.0
2.48889 0	 0.0
2.51111 0	 0.0
2.51111 0.0222222	 0.0
2.48889 0.0222222	 0.0
2.51111 0	 0.0
2.53333 0	 0.0
2.53333 0.0222222	 0.0
2.51111 0.0222222	 0.0
2.53333 0	 0.0
2.55556 0	 0.0
2.55556 0.0222222	 0.0
2.53333 0.0222222	 0.0
2.55556 0	 0.0
2.57778 0	 0.0
2.57778 0.0222222	 0.0
2.55556 0.0222222	 0.0
2.57778 0	 0.0
2.6 0	 0.0
2.6 0.0222222	 0.0
2.57778 0.0222222	 0.0
2.6 0	 0.0
2.62222 0	 0.0
2.62222 0.0222222	 0.0
2.6 0.0222222	 0.0
2.62222 0	 0.0
2.64444 0	 0.0
2.64444 0.0222222	 0.0
2.62222 0.0222222	 0.0
2.64444 0	 0.0
2.66667 0	 0.0
2.66667 0.0222222	 0.0
2.64444 0.0222222	 0.0
2.66667 0	 0.0
2.68889 0	 0.0
2.68889 0.0222222	 0.0
2.66667 0.0222222	 0.0
2.68889 0	 0.0
2.71111 0	 0.0
2.71111 0.0222222	 0.0
2.68889 0.0222222	 0.0
2.71111 0	 0.0
2.73333 0	 0.0
2.73333 0.0222222	 0.0
2.71111 0.0222222	 0.0
2.73333 0	 0.0
2.75556 0	 0.0
2.75556 0.0222222	 0.0
2.73333 0.0222222	 0.0
2.75556 0	 0.0
2.77778 0	 0.0
2.77778 0.0222222	 0.0
2.75556 0.0222222	 0.0
2.77778 0	 0.0
2.8 0	 0.0
2.8 0.0222222	 0.0
2.77778 0.0222222	 0.0
2.8 0	 0.0
2.82222 0	 0.0
2.82222 0.0222222	 0.0
2.8 0.0222222	 0.0
2.82222 0	 0.0
2.84444 0	 0.0
2.84444 0.0222222	 0.0
2.82222 0.0222222	 0.0
2.84444 0	 0.0
2.86667 0	 0.0
2.86667 0.0222222	 0.0
2.84444 0.0222222	 0.0
2.86667 0	 0.0
2.88889 0	 0.0
2.88889 0.0222222	 0.0
2.86667 0.0222222	 0.0
2.88889 0	 0.0
2.91111 0	 0.0
2.91111 0.0222222	 0.0
2.88889 0.0222222	 0.0
2.91111 0	 0.0
[...]
POINT_DATA 23424
SCALARS levelset_first float
LOOKUP_TABLE default
-2.68629
-2.61841
-2.59224
-2.66011
-2.61841
-2.55153
-2.52535
-2.59224
-2.55153
-2.48563
-2.45946
-2.52535
-2.48563
-2.42072
-2.39454
-2.45946
-2.42072
-2.35679
-2.33062
-2.39454
-2.35679
-2.29386
-2.26769
-2.33062
-2.29386
-2.23191
-2.20574
-2.26769
-2.23191
-2.17095
-2.14478
-2.20574
-2.17095
-2.11098
-2.08481
-2.14478
-2.11098
-2.05199
-2.02582
-2.08481
-2.05199
-1.994
-1.96782
-2.02582
-1.994
-1.93699
-1.91081
-1.96782
-1.93699
-1.88096
-1.85479
-1.91081
-1.88096
-1.82593
-1.79976
-1.85479
-1.82593
-1.77188
-1.74571
-1.79976
-1.77188
-1.71882
-1.69265
-1.74571
-1.71882
-1.66675
-1.64058
-1.69265
-1.66675
-1.61567
-1.5895
-1.64058
-1.61567
-1.56557
-1.5394
-1.5895
-1.56557
-1.51646
-1.49029
-1.5394
-1.51646
-1.46834
-1.44217
-1.49029
-1.46834
-1.42121
-1.39504
-1.44217
-1.42121
-1.37506
-1.34889
-1.39504
-1.37506
-1.32991
-1.30373
-1.34889
-1.32991
-1.28574
-1.25956
-1.30373
-1.28574
-1.24255
-1.21638
-1.25956
-1.24255
-1.20036
-1.17419
-1.21638
-1.20036
-1.15915
-1.13298
-1.17419
-1.15915
-1.11893
-1.09276
-1.13298
-1.11893
-1.0797
-1.05353
-1.09276
-1.0797
-1.04146
-1.01528
-1.05353
-1.04146
-1.0042
-0.978026
-1.01528
-1.0042
-0.96793
-0.941757
-0.978026
-0.96793
-0.932648
-0.906476
-0.941757
-0.932648
-0.898355
-0.872182
-0.906476
-0.898355
-0.865049
-0.838876
-0.872182
-0.865049
-0.83273
-0.806558
-0.838876
-0.83273
-0.8014
-0.775227
-0.806558
-0.8014
-0.771057
-0.744884
-0.775227
-0.771057
-0.741701
-0.715528
-0.744884
-0.741701
-0.713334
-0.687161
-0.715528
-0.713334
-0.685953
-0.659781
-0.687161
-0.685953
-0.659561
-0.633388
-0.659781
-0.659561
-0.634156
-0.607983
-0.633388
-0.634156
-0.609739
-0.583566
-0.607983
-0.609739
-0.58631
-0.560137
-0.583566
-0.58631
-0.563868
-0.537695
-0.560137
-0.563868
-0.542414
-0.516241
-0.537695
-0.542414
-0.521947
-0.495774
-0.516241
-0.521947
-0.502468
-0.476295
-0.495774
-0.502468
-0.483977
-0.457804
-0.476295
-0.483977
-0.466474
-0.440301
-0.457804
-0.466474
-0.449958
-0.423785
-0.440301
-0.449958
-0.434429
-0.408257
-0.423785
-0.434429
-0.419889
-0.393716
-0.408257
-0.419889
-0.406336
-0.380163
-0.393716
-0.406336
-0.393771
-0.367598
-0.380163
-0.393771
-0.382193
-0.35602
-0.367598
-0.382193
-0.371603
-0.34543
-0.35602
-0.371603
-0.362001
-0.335828
-0.34543
-0.362001
-0.353386
-0.327213
-0.335828
-0.353386
-0.345759
-0.319586
-0.327213
-0.345759
-0.33912
-0.312947
-0.319586
-0.33912
-0.333468
-0.307295
-0.312947
-0.333468
-0.328804
-0.302631
-0.307295
-0.328804
-0.325128
-0.298955
-0.302631
-0.325128
-0.322439
-0.296266
-0.298955
-0.322439
-0.320738
-0.294565
-0.296266
-0.320738
-0.320024
-0.293852
-0.294565
-0.320024
-0.320299
-0.294126
-0.293852
-0.320299
-0.321561
-0.295388
-0.294126
-0.321561
-0.32381
-0.297637
-0.295388
-0.32381
-0.327047
-0.300874
-0.297637
-0.327047
-0.331272
-0.305099
-0.300874
-0.331272
-0.336485
-0.310312
-0.305099
-0.336485
-0.342685
-0.316512
-0.310312
-0.342685
-0.349873
-0.3237
-0.316512
-0.349873
-0.358048
-0.331875
-0.3237
-0.358048
-0.367211
-0.341038
-0.331875
-0.367211
-0.377362
-0.351189
-0.341038
-0.377362
-0.3885
-0.362328
-0.351189
-0.3885
-0.400626
-0.374454
-0.362328
-0.400626
-0.41374
-0.387567
-0.374454
-0.41374
-0.427842
-0.401669
-0.387567
-0.427842
-0.442931
-0.416758
-0.401669
-0.442931
-0.459007
-0.432835
-0.416758
-0.459007
-0.476072
-0.449899
-0.432835
-0.476072
-0.494124
-0.467951
-0.449899
-0.494124
-0.513163
-0.486991
-0.467951
-0.513163
-0.533191
-0.507018
-0.486991
-0.533191
-0.554206
-0.528033
-0.507018
-0.554206
-0.576208
-0.550035
-0.528033
-0.576208
-0.599199
-0.573026
-0.550035
-0.599199
-0.623177
-0.597004
-0.573026
-0.623177
-0.648142
-0.621969
-0.597004
-0.648142
-0.674095
-0.647923
-0.621969
-0.674095
-0.701036
-0.674863
-0.647923
-0.701036
-0.728965
-0.702792
-0.674863
-0.728965
-0.757881
-0.731708
-0.702792
-0.757881
-0.787785
-0.761612
-0.731708
-0.787785
-0.818676
-0.792504
-0.761612
-0.818676
-0.850556
-0.824383
-0.792504
-0.850556
-0.883422
-0.85725
-0.824383
-0.883422
-0.917277
-0.891104
-0.85725
-0.917277
-0.952119
-0.925946
-0.891104
-0.952119
-0.987949
-0.961776
-0.925946
-0.987949
-1.02477
-0.998593
-0.961776
-1.02477
-1.06257
-1.0364
-0.998593
-1.06257
-1.10136
-1.07519
-1.0364
-1.10136
-1.14114
-1.11497
-1.07519
-1.14114
-1.18191
-1.15574
-1.11497
-1.18191
-1.22367
-1.1975
-1.15574
-1.22367
-1.26641
-1.24024
-1.1975
-1.26641
-1.31014
-1.28397
-1.24024
-1.31014
-1.35486
-1.32869
-1.28397
-1.35486
-1.40057
-1.37439
-1.32869
-1.40057
-1.44726
-1.42109
-1.37439
-1.44726
-1.49494
-1.46877
-1.42109
-1.49494
-1.54361
-1.51744
-1.46877
-1.54361
-1.59327
-1.5671
-1.51744
-1.59327
-1.64391
-1.61774
-1.5671
-1.64391
-1.69555
-1.66937
-1.61774
-1.69555
-1.74817
-1.72199
-1.66937
-1.74817
-1.80177
-1.7756
-1.72199
-1.80177
-1.85637
-1.8302
-1.7756
-1.85637
-1.91195
-1.88578
-1.8302
-1.91195
-1.96852
-1.94235
-1.88578
-1.96852
-2.02608
-1.99991
-1.94235
-2.02608
-2.08463
-2.05845
-1.99991
-2.08463
-2.14416
-2.11799
-2.05845
-2.14416
-2.20468
-2.17851
-2.11799
-2.20468
-2.26619
-2.24002
-2.17851
-2.26619
-2.32869
-2.30251
-2.24002
-2.32869
-2.39217
-2.366
-2.30251
-2.39217
-2.45664
-2.43047
-2.366
-2.66011
-2.59224
-2.56706
-2.63493
-2.59224
-2.52535
-2.50017
-2.56706
-2.52535
-2.45946
-2.43427
-2.50017
-2.45946
-2.39454
-2.36936
-2.43427
-2.39454
-2.33062
-2.30544
-2.36936
-2.33062
-2.26769
-2.2425
-2.30544
-2.26769
-2.20574
-2.18055
-2.2425
-2.20574
-2.14478
-2.11959
-2.18055
-2.14478
-2.08481
-2.05962
-2.11959
-2.08481
-2.02582
-2.00063
-2.05962
-2.02582
-1.96782
-1.94264
-2.00063
-1.96782
-1.91081
-1.88563
-1.94264
-1.91081
-1.85479
-1.82961
-1.88563
-1.85479
-1.79976
-1.77457
-1.82961
-1.79976
-1.74571
-1.72052
-1.77457
-1.74571
-1.69265
-1.66747
-1.72052
-1.69265
-1.64058
-1.61539
-1.66747
-1.64058
-1.5895
-1.56431
-1.61539
-1.5895
-1.5394
-1.51421
-1.56431
-1.5394
-1.49029
-1.46511
-1.51421
-1.49029
-1.44217
-1.41698
-1.46511
-1.44217
-1.39504
-1.36985
-1.41698
-1.39504
-1.34889
-1.32371
-1.36985
-1.34889
-1.30373
-1.27855
-1.32371
-1.30373
-1.25956
-1.23438
-1.27855
-1.25956
-1.21638
-1.1912
-1.23438
-1.21638
-1.17419
-1.149
-1.1912
-1.17419
-1.13298
-1.10779
-1.149
-1.13298
-1.09276
-1.06757
-1.10779
-1.09276
-1.05353
-1.02834
-1.06757
-1.05353
-1.01528
-0.990097
-1.02834
-1.01528
-0.978026
-0.952841
-0.990097
-0.978026
-0.941757
-0.916572
-0.952841
-0.941757
-0.906476
-0.88129
-0.916572
-0.906476
-0.872182
-0.846997
-0.88129
-0.872182
-0.838876
-0.813691
-0.846997
-0.838876
-0.806558
-0.781372
-0.813691
-0.806558
-0.775227
-0.750042
-0.781372
-0.775227
-0.744884
-0.719699
-0.750042
-0.744884
-0.715528
-0.690343
-0.719699
-0.715528
-0.687161
-0.661976
-0.690343
-0.687161
-0.659781
-0.634595
-0.661976
-0.659781
-0.633388
-0.608203
-0.634595
-0.633388
-0.607983
-0.582798
-0.608203
-0.607983
-0.583566
-0.558381
-0.582798
-0.583566
-0.560137
-0.534952
-0.558381
-0.560137
-0.537695
-0.51251
-0.534952
-0.537695
-0.516241
-0.491056
-0.51251
-0.516241
-0.495774
-0.470589
-0.491056
-0.495774
-0.476295
-0.45111
-0.470589
-0.476295
-0.457804
-0.432619
-0.45111
-0.457804
-0.440301
-0.415116
-0.432619
-0.440301
-0.423785
-0.3986
-0.415116
-0.423785
-0.408257
-0.383071
-0.3986
-0.408257
-0.393716
-0.368531
-0.383071
-0.393716
-0.380163
-0.354978
-0.368531
-0.380163
-0.367598
-0.342413
-0.354978
-0.367598
-0.35602
-0.330835
-0.342413
-0.35602
-0.34543
-0.320245
-0.330835
-0.34543
-0.335828
-0.310643
-0.320245
-0.335828
-0.327213
-0.302028
-0.310643
-0.327213
-0.319586
-0.294401
-0.302028
-0.319586
-0.312947
-0.287762
-0.294401
-0.312947
-0.307295
-0.28211
-0.287762
-0.307295
-0.302631
-0.277446
-0.28211
-0.302631
-0.298955
-0.27377
-0.277446
-0.298955
-0.296266
-0.271081
-0.27377
-0.296266
-0.294565
-0.26938
-0.271081
-0.294565
-0.293852
-0.268666
-0.26938
-0.293852
-0.294126
-0.268941
-0.268666
-0.294126
-0.295388
-0.270203
-0.268941
-0.295388
-0.297637
-0.272452
-0.270203
-0.297637
-0.300874
-0.275689
-0.272452
-0.300874
-0.305099
-0.279914
-0.275689
-0.305099
-0.310312
-0.285127
-0.279914
-0.310312
-0.316512
-0.291327
-0.285127
-0.316512
-0.3237
-0.298515
-0.291327
-0.3237
-0.331875
-0.30669
-0.298515
-0.331875
-0.341038
-0.315853
-0.30669
-0.341038
-0.351189
-0.326004
-0.315853
-0.351189
-0.362328
-0.337142
-0.326004
-0.362328
-0.374454
-0.349268
-0.337142
-0.374454
-0.387567
-0.362382
-0.349268
-0.387567
-0.401669
-0.376484
-0.362382
-0.401669
-0.416758
-0.391573
-0.376484
-0.416758
-0.432835
-0.407649
-0.391573
-0.432835
-0.449899
-0.424714
-0.407649
-0.449899
-0.467951
-0.442766
-0.424714
-0.467951
-0.486991
-0.461805
-0.442766
-0.486991
-0.507018
-0.481833
-0.461805
-0.507018
-0.528033
-0.502848
-0.481833
-0.528033
-0.550035
-0.52485
-0.502848
-0.550035
-0.573026
-0.547841
-0.52485
-0.573026
-0.597004
-0.571819
-0.547841
-0.597004
-0.621969
-0.596784
-0.571819
-0.621969
-0.647923
-0.622737
-0.596784
-0.647923
-0.674863
-0.649678
-0.622737
-0.674863
-0.702792
-0.677607
-0.649678
-0.702792
-0.731708
-0.706523
-0.677607
-0.731708
-0.761612
-0.736427
-0.706523
-0.761612
-0.792504
-0.767318
-0.736427
-0.792504
-0.824383
-0.799198
-0.767318
-0.824383
-0.85725
-0.832064
-0.799198
-0.85725
-0.891104
-0.865919
-0.832064
-0.891104
-0.925946
-0.900761
-0.865919
-0.925946
-0.961776
-0.936591
-0.900761
-0.961776
-0.998593
-0.973408
-0.936591
-0.998593
-1.0364
-1.01121
-0.973408
-1.0364
-1.07519
-1.05001
-1.01121
-1.07519
-1.11497
-1.08979
-1.05001
-1.11497
-1.15574
-1.13055
-1.08979
-1.15574
-1.1975
-1.17231
-1.13055
-1.1975
-1.24024
-1.21505
-1.17231
-1.24024
-1.28397
-1.25878
-1.21505
-1.28397
-1.32869
-1.3035
-1.25878
-1.32869
-1.37439
-1.34921
-1.3035
-1.37439
-1.42109
-1.3959
-1.34921
-1.42109
-1.46877
-1.44359
-1.3959
-1.46877
-1.51744
-1.49225
-1.44359
-1.51744
-1.5671
-1.54191
-1.49225
-1.5671
-1.61774
-1.59256
-1.54191
-1.61774
-1.66937
-1.64419
-1.59256
-1.66937
-1.72199
-1.69681
-1.64419
-1.72199
-1.7756
-1.75042
-1.69681
-1.7756
-1.8302
-1.80501
-1.75042
-1.8302
-1.88578
-1.86059
-1.80501
-1.88578
-1.94235
-1.91716
-1.86059
-1.94235
-1.99991
-1.97472
-1.91716
-1.99991
-2.05845
-2.03327
-1.97472
-2.05845
-2.11799
-2.0928
-2.03327
-2.11799
-2.17851
-2.15332
-2.0928
-2.17851
-2.24002
-2.21483
-2.15332
-2.24002
-2.30251
-2.27733
-2.21483
-2.30251
-2.366
-2.34081
-2.27733
-2.366
-2.43047
-2.40528
-2.34081
-2.63493
-2.56706
-2.54286
-2.61073
-2.56706
-2.50017
-2.47597
-2.54286
-2.50017
-2.43427
-2.41007
-2.47597
-2.43427
-2.36936
-2.34516
-2.41007
-2.36936
-2.30544
-2.28124
-2.34516
-2.30544
-2.2425
-2.2183
-2.28124
-2.2425
-2.18055
-2.15636
-2.2183
-2.18055
-2.11959
-2.09539
-2.15636
-2.11959
-2.05962
-2.03542
-2.09539
-2.05962
-2.00063
-1.97644
-2.03542
-2.00063
-1.94264
-1.91844
-1.97644
-1.94264
-1.88563
-1.86143
-1.91844
-1.88563
-1.82961
-1.80541
-1.86143
-1.82961
-1.77457
-1.75037
-1.80541
-1.77457
-1.72052
-1.69633
-1.75037
-1.72052
-1.66747
-1.64327
-1.69633
-1.66747
-1.61539
-1.5912
-1.64327
-1.61539
-1.56431
-1.54011
-1.5912
-1.56431
-1.51421
-1.49002
-1.54011
-1.51421
-1.46511
-1.44091
-1.49002
-1.46511
-1.41698
-1.39279
-1.44091
-1.41698
-1.36985
-1.34565
-1.39279
-1.36985
-1.32371
-1.29951
-1.34565
-1.32371
-1.27855
-1.25435
-1.29951
-1.27855
-1.23438
-1.21018
-1.25435
-1.23438
-1.1912
-1.167
-1.21018
-1.1912
-1.149
-1.1248
-1.167
-1.149
-1.10779
-1.0836
-1.1248
-1.10779
-1.06757
-1.04338
-1.0836
-1.06757
-1.02834
-1.00414
-1.04338
-1.02834
-0.990097
-0.9659
-1.00414
-0.990097
-0.952841
-0.928643
-0.9659
-0.952841
-0.916572
-0.892374
-0.928643
-0.916572
-0.88129
-0.857093
-0.892374
-0.88129
-0.846997
-0.822799
-0.857093
-0.846997
-0.813691
-0.789493
-0.822799
-0.813691
-0.781372
-0.757175
-0.789493
-0.781372
-0.750042
-0.725844
-0.757175
-0.750042
-0.719699
-0.695501
-0.725844
-0.719699
-0.690343
-0.666146
-0.695501
-0.690343
-0.661976
-0.637778
-0.666146
-0.661976
-0.634595
-0.610398
-0.637778
-0.634595
-0.608203
-0.584005
-0.610398
-0.608203
-0.582798
-0.558601
-0.584005
-0.582798
-0.558381
-0.534184
-0.558601
-0.558381
-0.534952
-0.510754
-0.534184
-0.534952
-0.51251
-0.488312
-0.510754
-0.51251
-0.491056
-0.466858
-0.488312
-0.491056
-0.470589
-0.446392
-0.466858
-0.470589
-0.45111
-0.426913
-0.446392
-0.45111
-0.432619
-0.408422
-0.426913
-0.432619
-0.415116
-0.390918
-0.408422
-0.415116
-0.3986
-0.374402
-0.390918
-0.3986
-0.383071
-0.358874
-0.374402
-0.383071
-0.368531
-0.344333
-0.358874
-0.368531
-0.354978
-0.33078
-0.344333
-0.354978
-0.342413
-0.318215
-0.33078
-0.342413
-0.330835
-0.306637
-0.318215
-0.330835
-0.320245
-0.296048
-0.306637
-0.320245
-0.310643
-0.286445
-0.296048
-0.310643
-0.302028
-0.277831
-0.286445
-0.302028
-0.294401
-0.270204
-0.277831
-0.294401
-0.287762
-0.263564
-0.270204
-0.287762
-0.28211
-0.257913
-0.263564
-0.28211
-0.277446
-0.253248
-0.257913
-0.277446
-0.27377
-0.249572
-0.253248
-0.27377
-0.271081
-0.246883
-0.249572
-0.271081
-0.26938
-0.245182
-0.246883
-0.26938
-0.268666
-0.244469
-0.245182
-0.268666
-0.268941
-0.244743
-0.244469
-0.268941
-0.270203
-0.246005
-0.244743
-0.270203
-0.272452
-0.248255
-0.246005
-0.272452
-0.275689
-0.251492
-0.248255
-0.275689
-0.279914
-0.255717
-0.251492
-0.279914
-0.285127
-0.260929
-0.255717
-0.285127
-0.291327
-0.267129
-0.260929
-0.291327
-0.298515
-0.274317
-0.267129
-0.298515
-0.30669
-0.282493
-0.274317
-0.30669
-0.315853
-0.291656
-0.282493
-0.315853
-0.326004
-0.301806
-0.291656
-0.326004
-0.337142
-0.312945
-0.301806
-0.337142
-0.349268
-0.325071
-0.312945
-0.349268
-0.362382
-0.338185
-0.325071
-0.362382
-0.376484
-0.352286
-0.338185
-0.376484
-0.391573
-0.367375
-0.352286
-0.391573
-0.407649
-0.383452
-0.367375
-0.407649
-0.424714
-0.400516
-0.383452
-0.424714
-0.442766
-0.418568
-0.400516
-0.442766
-0.461805
-0.437608
-0.418568
-0.461805
-0.481833
-0.457635
-0.437608
-0.481833
-0.502848
-0.47865
-0.457635
-0.502848
-0.52485
-0.500653
-0.47865
-0.52485
-0.547841
-0.523643
-0.500653
-0.547841
-0.571819
-0.547621
-0.523643
-0.571819
-0.596784
-0.572587
-0.547621
-0.596784
-0.622737
-0.59854
-0.572587
-0.622737
-0.649678
-0.625481
-0.59854
-0.649678
-0.677607
-0.653409
-0.625481
-0.677607
-0.706523
-0.682325
-0.653409
-0.706523
-0.736427
-0.712229
-0.682325
-0.736427
-0.767318
-0.743121
-0.712229
-0.767318
-0.799198
-0.775
-0.743121
-0.799198
-0.832064
-0.807867
-0.775
-0.832064
-0.865919
-0.841721
-0.807867
-0.865919
-0.900761
-0.876563
-0.841721
-0.900761
-0.936591
-0.912393
-0.876563
-0.936591
-0.973408
-0.949211
-0.912393
-0.973408
-1.01121
-0.987016
-0.949211
-1.01121
-1.05001
-1.02581
-0.987016
-1.05001
-1.08979
-1.06559
-1.02581
-1.08979
-1.13055
-1.10636
-1.06559
-1.13055
-1.17231
-1.14811
-1.10636
-1.17231
-1.21505
-1.19086
-1.14811
-1.21505
-1.25878
-1.23459
-1.19086
-1.25878
-1.3035
-1.27931
-1.23459
-1.3035
-1.34921
-1.32501
-1.27931
-1.34921
-1.3959
-1.37171
-1.32501
-1.3959
-1.44359
-1.41939
-1.37171
-1.44359
-1.49225
-1.46806
-1.41939
-1.49225
-1.54191
-1.51771
-1.46806
-1.54191
-1.59256
-1.56836
-1.51771
-1.59256
-1.64419
-1.61999
-1.56836
-1.64419
-1.69681
-1.67261
-1.61999
-1.69681
-1.75042
-1.72622
-1.67261
-1.75042
-1.80501
-1.78081
-1.72622
-1.80501
-1.86059
-1.8364
-1.78081
-1.86059
-1.91716
-1.89297
-1.8364
-1.91716
-1.97472
-1.95053
-1.89297
-1.97472
-2.03327
-2.00907
-1.95053
-2.03327
-2.0928
-2.0686
-2.00907
-2.0928
-2.15332
-2.12913
-2.0686
-2.15332
-2.21483
-2.19063
-2.12913
-2.21483
-2.27733
-2.25313
-2.19063
-2.27733
-2.34081
-2.31661
-2.25313
-2.34081
-2.40528
-2.38109
-2.31661
-2.61073
-2.54286
-2.51965
-2.58752
-2.54286
-2.47597
-2.45276
-2.51965
-2.47597
-2.41007
-2.38686
-2.45276
-2.41007
-2.34516
-2.32195
-2.38686
-2.34516
-2.28124
-2.25803
-2.32195
-2.28124
-2.2183
-2.19509
-2.25803
-2.2183
-2.15636
-2.13315
-2.19509
-2.15636
-2.09539
-2.07219
-2.13315
-2.09539
-2.03542
-2.01221
-2.07219
-2.03542
-1.97644
-1.95323
-2.01221
-1.97644
-1.91844
-1.89523
-1.95323
-1.91844
-1.86143
-1.83822
-1.89523
-1.86143
-1.80541
-1.7822
-1.83822
-1.80541
-1.75037
-1.72716
-1.7822
-1.75037
-1.69633
-1.67312
-1.72716
-1.69633
-1.64327
-1.62006
-1.67312
-1.64327
-1.5912
-1.56799
-1.62006
-1.5912
-1.54011
-1.5169
-1.56799
-1.54011
-1.49002
-1.46681
-1.5169
-1.49002
-1.44091
-1.4177
-1.46681
-1.44091
-1.39279
-1.36958
-1.4177
-1.39279
-1.34565
-1.32244
-1.36958
-1.34565
-1.29951
-1.2763
-1.32244
-1.29951
-1.25435
-1.23114
-1.2763
-1.25435
-1.21018
-1.18697
-1.23114
-1.21018
-1.167
-1.14379
-1.18697
-1.167
-1.1248
-1.10159
-1.14379
-1.1248
-1.0836
-1.06039
-1.10159
-1.0836
-1.04338
-1.02017
-1.06039
-1.04338
-1.00414
-0.980934
-1.02017
-1.00414
-0.9659
-0.94269
-0.980934
-0.9659
-0.928643
-0.905433
-0.94269
-0.928643
-0.892374
-0.869164
-0.905433
-0.892374
-0.857093
-0.833883
-0.869164
-0.857093
-0.822799
-0.799589
-0.833883
-0.822799
-0.789493
-0.766283
-0.799589
-0.789493
-0.757175
-0.733965
-0.766283
-0.757175
-0.725844
-0.702634
-0.733965
-0.725844
-0.695501
-0.672291
-0.702634
-0.695501
-0.666146
-0.642936
-0.672291
-0.666146
-0.637778
-0.614568
-0.642936
-0.637778
-0.610398
-0.587188
-0.614568
-0.610398
-0.584005
-0.560796
-0.587188
-0.584005
-0.558601
-0.535391
-0.560796
-0.558601
-0.534184
-0.510974
-0.535391
-0.534184
-0.510754
-0.487544
-0.510974
-0.510754
-0.488312
-0.465102
-0.487544
-0.488312
-0.466858
-0.443648
-0.465102
-0.466858
-0.446392
-0.423182
-0.443648
-0.446392
-0.426913
-0.403703
-0.423182
-0.426913
-0.408422
-0.385212
-0.403703
-0.408422
-0.390918
-0.367708
-0.385212
-0.390918
-0.374402
-0.351192
-0.367708
-0.374402
-0.358874
-0.335664
-0.351192
-0.358874
-0.344333
-0.321123
-0.335664
-0.344333
-0.33078
-0.30757
-0.321123
-0.33078
-0.318215
-0.295005
-0.30757
-0.318215
-0.306637
-0.283428
-0.295005
-0.306637
-0.296048
-0.272838
-0.283428
-0.296048
-0.286445
-0.263235
-0.272838
-0.286445
-0.277831
-0.254621
-0.263235
-0.277831
-0.270204
-0.246994
-0.254621
-0.270204
-0.263564
-0.240354
-0.246994
-0.263564
-0.257913
-0.234703
-0.240354
-0.257913
-0.253248
-0.230039
-0.234703
-0.253248
-0.249572
-0.226362
-0.230039
-0.249572
-0.246883
-0.223673
-0.226362
-0.246883
-0.245182
-0.221972
-0.223673
-0.245182
-0.244469
-0.221259
-0.221972
-0.244469
-0.244743
-0.221533
-0.221259
-0.244743
-0.246005
-0.222795
-0.221533
-0.246005
-0.248255
-0.225045
-0.222795
-0.248255
-0.251492
-0.228282
-0.225045
-0.251492
-0.255717
-0.232507
-0.228282
-0.255717
-0.260929
-0.237719
-0.232507
-0.260929
-0.267129
-0.243919
-0.237719
-0.267129
-0.274317
-0.251107
-0.243919
-0.274317
-0.282493
-0.259283
-0.251107
-0.282493
-0.291656
-0.268446
-0.259283
-0.291656
-0.301806
-0.278597
-0.268446
-0.301806
-0.312945
-0.289735
-0.278597
-0.312945
-0.325071
-0.301861
-0.289735
-0.325071
-0.338185
-0.314975
-0.301861
-0.338185
-0.352286
-0.329076
-0.314975
-0.352286
-0.367375
-0.344165
-0.329076
-0.367375
-0.383452
-0.360242
-0.344165
-0.383452
-0.400516
-0.377306
-0.360242
-0.400516
-0.418568
-0.395358
-0.377306
-0.418568
-0.437608
-0.414398
-0.395358
-0.437608
-0.457635
-0.434425
-0.414398
-0.457635
-0.47865
-0.45544
-0.434425
-0.47865
-0.500653
-0.477443
-0.45544
-0.500653
-0.523643
-0.500433
-0.477443
-0.523643
-0.547621
-0.524411
-0.500433
-0.547621
-0.572587
-0.549377
-0.524411
-0.572587
-0.59854
-0.57533
-0.549377
-0.59854
-0.625481
-0.602271
-0.57533
-0.625481
-0.653409
-0.630199
-0.602271
-0.653409
-0.682325
-0.659116
-0.630199
-0.682325
-0.712229
-0.689019
-0.659116
-0.712229
-0.743121
-0.719911
-0.689019
-0.743121
-0.775
-0.75179
-0.719911
-0.775
-0.807867
-0.784657
-0.75179
-0.807867
-0.841721
-0.818511
-0.784657
-0.841721
-0.876563
-0.853354
-0.818511
-0.876563
-0.912393
-0.889183
-0.853354
-0.912393
-0.949211
-0.926001
-0.889183
-0.949211
-0.987016
-0.963806
-0.926001
-0.987016
-1.02581
-1.0026
-0.963806
-1.02581
-1.06559
-1.04238
-1.0026
-1.06559
-1.10636
-1.08315
-1.04238
-1.10636
-1.14811
-1.1249
-1.08315
-1.14811
-1.19086
-1.16765
-1.1249
-1.19086
-1.23459
-1.21138
-1.16765
-1.23459
-1.27931
-1.2561
-1.21138
-1.27931
-1.32501
-1.3018
-1.2561
-1.32501
-1.37171
-1.3485
-1.3018
-1.37171
-1.41939
-1.39618
-1.3485
-1.41939
-1.46806
-1.44485
-1.39618
-1.46806
-1.51771
-1.4945
-1.44485
-1.51771
-1.56836
-1.54515
-1.4945
-1.56836