# vtk DataFile Version 1.0
unstructured Grid
ASCII
DATASET UNSTRUCTURED_GRID
POINTS 23424 float 
0 0	 0.0
0.0222222 0	 0.0
0.0222222 0.0222222	 0.0
0 0.0222222	 0.0
0.0222222 0	 0.0
0.0444444 0	 0.0
0.0444444 0.0222222	 0.0
0.0222222 0.0222222	 0.0
0.0444444 0	 0.0
0.0666667 0	 0.0
0.0666667 0.0222222	 0.0
0.0444444 0.0222222	 0.0
0.0666667 0	 0.0
0.0888889 0	 0.0
0.0888889 0.0222222	 0.0
0.0666667 0.0222222	 0.0
0.0888889 0	 0.0
0.111111 0	 0.0
0.111111 0.0222222	 0.0
0.0888889 0.0222222	 0.0
0.111111 0	 0.0
0.133333 0	 0.0
0.133333 0.0222222	 0.0
0.111111 0.0222222	 0.0
0.133333 0	 0.0
0.155556 0	 0.0
0.155556 0.0222222	 0.0
0.133333 0.0222222	 0.0
0.155556 0	 0.0
0.177778 0	 0.0
0.177778 0.0222222	 0.0
0.155556 0.0222222	 0.0
0.177778 0	 0.0
0.2 0	 0.0
0.2 0.0222222	 0.0
0.177778 0.0222222	 0.0
0.2 0	 0.0
0.222222 0	 0.0
0.222222 0.0222222	 0.0
0.2 0.0222222	 0.0
0.222222 0	 0.0
0.244444 0	 0.0
0.244444 0.0222222	 0.0
0.222222 0.0222222	 0.0
0.244444 0	 0.0
0.266667 0	 0.0
0.266667 0.0222222	 0.0
0.244444 0.0222222	 0.0
0.266667 0	 0.0
0.288889 0	 0.0
0.288889 0.0222222	 0.0
0.266667 0.0222222	 0.0
0.288889 0	 0.0
0.311111 0	 0.0
0.311111 0.0222222	 0.0
0.288889 0.0222222	 0.0
0.311111 0	 0.0
0.333333 0	 0.0
0.333333 0.0222222	 0.0
0.311111 0.0222222	 0.0
0.333333 0	 0.0
0.355556 0	 0.0
0.355556 0.0222222	 0.0
0.333333 0.0222222	 0.0
0.355556 0	 0.0
0.377778 0	 0.0
0.377778 0.0222222	 0.0
0.355556 0.0222222	 0.0
0.377778 0	 0.0
0.4 0	 0.0
0.4 0.0222222	 0.0
0.377778 0.0222222	 0.0
0.4 0	 0.0
0.422222 0	 0.0
0.422222 0.0222222	 0.0
0.4 0.0222222	 0.0
0.422222 0	 0.0
0.444444 0	 0.0
0.444444 0.0222222	 0.0
0.422222 0.0222222	 0.0
0.444444 0	 0.0
0.466667 0	 0.0
0.466667 0.0222222	 0.0
0.444444 0.0222222	 0.0
0.466667 0	 0.0
0.488889 0	 0.0
0.488889 0.0222222	 0.0
0.466667 0.0222222	 0.0
0.488889 0	 0.0
0.511111 0	 0.0
0.511111 0.0222222	 0.0
0.488889 0.0222222	 0.0
0.511111 0	 0.0
0.533333 0	 0.0
0.533333 0.0222222	 0.0
0.511111 0.0222222	 0.0
0.533333 0	 0.0
0.555556 0	 0.0
0.555556 0.0222222	 0.0
0.533333 0.0222222	 0.0
0.555556 0	 0.0
0.577778 0	 0.0
0.577778 0.0222222	 0.0
0.555556 0.0222222	 0.0
0.577778 0	 0.0
0.6 0	 0.0
0.6 0.0222222	 0.0
0.577778 0.0222222	 0.0
0.6 0	 0.0
0.622222 0	 0.0
0.622222 0.0222222	 0.0
0.6 0.0222222	 0.0
0.622222 0	 0.0
0.644444 0	 0.0
0.644444 0.0222222	 0.0
0.622222 0.0222222	 0.0
0.644444 0	 0.0
0.666667 0	 0.0
0.666667 0.0222222	 0.0
0.644444 0.0222222	 0.0
0.666667 0	 0.0
0.688889 0	 0.0
0.688889 0.0222222	 0.0
0.666667 0.0222222	 0.0
0.688889 0	 0.0
0.711111 0	 0.0
0.711111 0.0222222	 0.0
0.688889 0.0222222	 0.0
0.711111 0	 0.0
0.733333 0	 0.0
0.733333 0.0222222	 0.0
0.711111 0.0222222	 0.0
0.733333 0	 0.0
0.755556 0	 0.0
0.755556 0.0222222	 0.0
0.733333 0.0222222	 0.0
0.755556 0	 0.0
0.777778 0	 0.0
0.777778 0.0222222	 0.0
0.755556 0.0222222	 0.0
0.777778 0	 0.0
0.8 0	 0.0
0.8 0.0222222	 0.0
0.777778 0.0222222	 0.0
0.8 0	 0.0
0.822222 0	 0.0
0.822222 0.0222222	 0.0
0.8 0.0222222	 0.0
0.822222 0	 0.0
0.844444 0	 0.0
0.844444 0.0222222	 0.0
0.822222 0.0222222	 0.0
0.844444 0	 0.0
0.866667 0	 0.0
0.866667 0.0222222	 0.0
0.844444 0.0222222	 0.0
0.866667 0	 0.0
0.888889 0	 0.0
0.888889 0.0222222	 0.0
0.866667 0.0222222	 0.0
0.888889 0	 0.0
0.911111 0	 0.0
0.911111 0.0222222	 0.0
0.888889 0.0222222	 0.0
0.911111 0	 0.0
0.933333 0	 0.0
0.933333 0.0222222	 0.0
0.911111 0.0222222	 0.0
0.933333 0	 0.0
0.955556 0	 0.0
0.955556 0.0222222	 0.0
0.933333 0.0222222	 0.0
0.955556 0	 0.0
0.977778 0	 0.0
0.977778 0.0222222	 0.0
0.955556 0.0222222	 0.0
0.977778 0	 0.0
1 0	 0.0
1 0.0222222	 0.0
0.977778 0.0222222	 0.0
1 0	 0.0
1.02222 0	 0.0
1.02222 0.0222222	 0.0
1 0.0222222	 0.0
1.02222 0	 0.0
1.04444 0	 0.0
1.04444 0.0222222	 0.0
1.02222 0.0222222	 0.0
1.04444 0	 0.0
1.06667 0	 0.0
1.06667 0.0222222	 0.0
1.04444 0.0222222	 0.0
1.06667 0	 0.0
1.08889 0	 0.0
1.08889 0.0222222	 0.0
1.06667 0.0222222	 0.0
1.08889 0	 0.0
1.11111 0	 0.0
1.11111 0.0222222	 0.0
1.08889 0.0222222	 0.0
1.11111 0	 0.0
1.13333 0	 0.0
1.13333 0.0222222	 0.0
1.11111 0.0222222	 0.0
1.13333 0	 0.0
1.15556 0	 0.0
1.15556 0.0222222	 0.0
1.13333 0.0222222	 0.0
1.15556 0	 0.0
1.17778 0	 0.0
1.17778 0.0222222	 0.0
1.15556 0.0222222	 0.0
1.17778 0	 0.0
1.2 0	 0.0
1.2 0.0222222	 0.0
1.17778 0.0222222	 0.0
1.2 0	 0.0
1.22222 0	 0.0
1.22222 0.0222222	 0.0
1.2 0.0222222	 0.0
1.22222 0	 0.0
1.24444 0	 0.0
1.24444 0.0222222	 0.0
1.22222 0.0222222	 0.0
1.24444 0	 0.0
1.26667 0	 0.0
1.26667 0.0222222	 0.0
1.24444 0.0222222	 0.0
1.26667 0	 0.0
1.28889 0	 0.0
1.28889 0.0222222	 0.0
1.26667 0.0222222	 0.0
1.28889 0	 0.0
1.31111 0	 0.0
1.31111 0.0222222	 0.0
1.28889 0.0222222	 0.0
1.31111 0	 0.0
1.33333 0	 0.0
1.33333 0.0222222	 0.0
1.31111 0.0222222	 0.0
1.33333 0	 0.0
1.35556 0	 0.0
1.35556 0.0222222	 0.0
1.33333 0.0222222	 0.0
1.35556 0	 0.0
1.37778 0	 0.0
1.37778 0.0222222	 0.0
1.35556 0.0222222	 0.0
1.37778 0	 0.0
1.4 0	 0.0
1.4 0.0222222	 0.0
1.37778 0.0222222	 0.0
1.4 0	 0.0
1.42222 0	 0.0
1.42222 0.0222222	 0.0
1.4 0.0222222	 0.0
1.42222 0	 0.0
1.44444 0	 0.0
1.44444 0.0222222	 0.0
1.42222 0.0222222	 0.0
1.44444 0	 0.0
1.46667 0	 0.0
1.46667 0.0222222	 0.0
1.44444 0.0222222	 0.0
1.46667 0	 0.0
1.48889 0	 0.0
1.48889 0.0222222	 0.0
1.46667 0.0222222	 0.0
1.48889 0	 0.0
1.51111 0	 0.0
1.51111 0.0222222	 0.0
1.48889 0.0222222	 0.0
1.51111 0	 0.0
1.53333 0	 0.0
1.53333 0.0222222	 0.0
1.51111 0.0222222	 0.0
1.53333 0	 0.0
1.55556 0	 0.0
1.55556 0.0222222	 0.0
1.53333 0.0222222	 0.0
1.55556 0	 0.0
1.57778 0	 0.0
1.57778 0.0222222	 0.0
1.55556 0.0222222	 0.0
1.57778 0	 0.0
1.6 0	 0.0
1.6 0.0222222	 0.0
1.57778 0.0222222	 0.0
1.6 0	 0.0
1.62222 0	 0.0
1.62222 0.0222222	 0.0
1.6 0.0222222	 0.0
1.62222 0	 0.0
1.64444 0	 0.0
1.64444 0.0222222	 0.0
1.62222 0.0222222	 0.0
1.64444 0	 0.0
1.66667 0	 0.0
1.66667 0.0222222	 0.0
1.64444 0.0222222	 0.0
1.66667 0	 0.0
1.68889 0	 0.0
1.68889 0.0222222	 0.0
1.66667 0.0222222	 0.0
1.68889 0	 0.0
1.71111 0	 0.0
1.71111 0.0222222	 0.0
1.68889 0.0222222	 0.0
1.71111 0	 0.0
1.73333 0	 0.0
1.73333 0.0222222	 0.0
1.71111 0.0222222	 0.0
1.73333 0	 0.0
1.75556 0	 0.0
1.75556 0.0222222	 0.0
1.73333 0.0222222	 0.0
1.75556 0	 0.0
1.77778 0	 0.0
1.77778 0.0222222	 0.0
1.75556 0.0222222	 0.0
1.77778 0	 0.0
1.8 0	 0.0
1.8 0.0222222	 0.0
1.77778 0.0222222	 0.0
1.8 0	 0.0
1.82222 0	 0.0
1.82222 0.0222222	 0.0
1.8 0.0222222	 0.0
1.82222 0	 0.0
1.84444 0	 0.0
1.84444 0.0222222	 0.0
1.82222 0.0222222	 0.0
1.84444 0	 0.0
1.86667 0	 0.0
1.86667 0.0222222	 0.0
1.84444 0.0222222	 0.0
1.86667 0	 0.0
1.88889 0	 0.0
1.88889 0.0222222	 0.0
1.86667 0.0222222	 0.0
1.88889 0	 0.0
1.91111 0	 0.0
1.91111 0.0222222	 0.0
1.88889 0.0222222	 0.0
1.91111 0	 0.0
1.93333 0	 0.0
1.93333 0.0222222	 0.0
1.91111 0.0222222	 0.0
1.93333 0	 0.0
1.95556 0	 0.0
1.95556 0.0222222	 0.0
1.93333 0.0222222	 0.0
1.95556 0	 0.0
1.97778 0	 0.0
1.97778 0.0222222	 0.0
1.95556 0.0222222	 0.0
1.97778 0	 0.0
2 0	 0.0
2 0.0222222	 0.0
1.97778 0.0222222	 0.0
2 0	 0.0
2.02222 0	 0.0
2.02222 0.0222222	 0.0
2 0.0222222	 0.0
2.02222 0	 0.0
2.04444 0	 0.0
2.04444 0.0222222	 0.0
2.02222 0.0222222	 0.0
2.04444 0	 0.0
2.06667 0	 0.0
2.06667 0.0222222	 0.0
2.04444 0.0222222	 0.0
2.06667 0	 0.0
2.08889 0	 0.0
2.08889 0.0222222	 0.0
2.06667 0.0222222	 0.0
2.08889 0	 0.0
2.11111 0	 0.0
2.11111 0.0222222	 0.0
2.08889 0.0222222	 0.0
2.11111 0	 0.0
2.13333 0	 0.0
2.13333 0.0222222	 0.0
2.11111 0.0222222	 0.0
2.13333 0	 0.0
2.15556 0	 0.0
2.15556 0.0222222	 0.0
2.13333 0.0222222	 0.0
2.15556 0	 0.0
2.17778 0	 0.0
2.17778 0.0222222	 0.0
2.15556 0.0222222	 0.0
2.17778 0	 0.0
2.2 0	 0.0
2.2 0.0222222	 0.0
2.17778 0.0222222	 0.0
2.2 0	 0.0
2.22222 0	 0.0
2.22222 0.0222222	 0.0
2.2 0.0222222	 0.0
2.22222 0	 0.0
2.24444 0	 0.0
2.24444 0.0222222	 0.0
2.22222 0.0222222	 0.0
2.24444 0	 0.0
2.26667 0	 0.0
2.26667 0.0222222	 0.0
2.24444 0.0222222	 0.0
2.26667 0	 0.0
2.28889 0	 0.0
2.28889 0.0222222	 0.0
2.26667 0.0222222	 0.0
2.28889 0	 0.0
2.31111 0	 0.0
2.31111 0.0222222	 0.0
2.28889 0.0222222	 0.0
2.31111 0	 0.0
2.33333 0	 0.0
2.33333 0.0222222	 0.0
2.31111 0.0222222	 0.0
2.33333 0	 0.0
2.35556 0	 0.0
2.35556 0.0222222	 0.0
2.33333 0.0222222	 0.0
2.35556 0	 0.0
2.37778 0	 0.0
2.37778 0.0222222	 0.0
2.35556 0.0222222	 0.0
2.37778 0	 0.0
2.4 0	 0.0
2.4 0.0222222	 0.0
2.37778 0.0222222	 0.0
2.4 0	 0.0
2.42222 0	 0.0
2.42222 0.0222222	 0.0
2.4 0.0222222	 0.0
2.42222 0	 0.0
2.44444 0	 0.0
2.44444 0.0222222	 0.0
2.42222 0.0222222	 0.0
2.44444 0	 0.0
2.46667 0	 0.0
2.46667 0.0222222	 0.0
2.44444 0.0222222	 0.0
2.46667 0	 0.0
2.48889 0	 0.0
2.48889 0.0222222	 0.0
2.46667 0.0222222	 0.0
2.48889 0	 0.0
2.51111 0	 0.0
2.51111 0.0222222	 0.0
2.48889 0.0222222	 0.0
2.51111 0	 0.0
2.53333 0	 0.0
2.53333 0.0222222	 0.0
2.51111 0.0222222	 0.0
2.53333 0	 0.0
2.55556 0	 0.0
2.55556 0.0222222	 0.0
2.53333 0.0222222	 0.0
2.55556 0	 0.0
2.57778 0	 0.0
2.57778 0.0222222	 0.0
2.55556 0.0222222	 0.0
2.57778 0	 0.0
2.6 0	 0.0
2.6 0.0222222	 0.0
2.57778 0.0222222	 0.0
2.6 0	 0.0
2.62222 0	 0.0
2.62222 0.0222222	 0.0
2.6 0.0222222	 0.0
2.62222 0	 0.0
2.64444 0	 0.0
2.64444 0.0222222	 0.0
2.62222 0.0222222	 0.0
2.64444 0	 0.0
2.66667 0	 0.0
2.66667 0.0222222	 0.0
2.64444 0.0222222	 0.0
2.66667 0	 0.0
2.68889 0	 0.0
2.68889 0.0222222	 0.0
2.66667 0.0222222	 0.0
2.68889 0	 0.0
2.71111 0	 0.0
2.71111 0.0222222	 0.0
2.68889 0.0222222	 0.0
2.71111 0	 0.0
2.73333 0	 0.0
2.73333 0.0222222	 0.0
2.71111 0.0222222	 0.0
2.73333 0	 0.0
2.75556 0	 0.0
2.75556 0.0222222	 0.0
2.73333 0.0222222	 0.0
2.75556 0	 0.0
2.77778 0	 0.0
2.77778 0.0222222	 0.0
2.75556 0.0222222	 0.0
2.77778 0	 0.0
2.8 0	 0.0
2.8 0.0222222	 0.0
2.77778 0.0222222	 0.0
2.8 0	 0.0
2.82222 0	 0.0
2.82222 0.0222222	 0.0
2.8 0.0222222	 0.0
2.82222 0	 0.0
2.84444 0	 0.0
2.84444 0.0222222	 0.0
2.82222 0.0222222	 0.0
2.84444 0	 0.0
2.86667 0	 0.0
2.86667 0.0222222	 0.0
2.84444 0.0222222	 0.0
2.86667 0	 0.0
2.88889 0	 0.0
2.88889 0.0222222	 0.0
2.86667 0.0222222	 0.0
2.88889 0	 0.0
2.91111 0	 0.0
2.91111 0.0222222	 0.0
2.88889 0.0222222	 0.0
2.91111 0	 0.0
[...]
POINT_DATA 23424
SCALARS levelset_first float
LOOKUP_TABLE default
-5.7591
-5.65595
-5.62977
-5.73293
-5.65595
-5.55377
-5.5276
-5.62977
-5.55377
-5.45259
-5.42642
-5.5276
-5.45259
-5.35239
-5.32622
-5.42642
-5.35239
-5.25319
-5.22701
-5.32622
-5.25319
-5.15497
-5.12879
-5.22701
-5.15497
-5.05773
-5.03156
-5.12879
-5.05773
-4.96149
-4.93531
-5.03156
-4.96149
-4.86623
-4.84006
-4.93531
-4.86623
-4.77196
-4.74579
-4.84006
-4.77196
-4.67868
-4.6525
-4.74579
-4.67868
-4.58638
-4.56021
-4.6525
-4.58638
-4.49507
-4.4689
-4.56021
-4.49507
-4.40475
-4.37858
-4.4689
-4.40475
-4.31542
-4.28925
-4.37858
-4.31542
-4.22708
-4.20091
-4.28925
-4.22708
-4.13972
-4.11355
-4.20091
-4.13972
-4.05335
-4.02718
-4.11355
-4.05335
-3.96797
-3.9418
-4.02718
-3.96797
-3.88358
-3.85741
-3.9418
-3.88358
-3.80017
-3.774
-3.85741
-3.80017
-3.71775
-3.69158
-3.774
-3.71775
-3.63632
-3.61015
-3.69158
-3.63632
-3.55588
-3.52971
-3.61015
-3.55588
-3.47643
-3.45025
-3.52971
-3.47643
-3.39796
-3.37179
-3.45025
-3.39796
-3.32048
-3.29431
-3.37179
-3.32048
-3.24399
-3.21781
-3.29431
-3.24399
-3.16848
-3.14231
-3.21781
-3.16848
-3.09396
-3.06779
-3.14231
-3.09396
-3.02043
-2.99426
-3.06779
-3.02043
-2.94789
-2.92172
-2.99426
-2.94789
-2.87634
-2.85017
-2.92172
-2.87634
-2.80577
-2.7796
-2.85017
-2.80577
-2.73619
-2.71002
-2.7796
-2.73619
-2.6676
-2.64143
-2.71002
-2.6676
-2.6
-2.57383
-2.64143
-2.6
-2.53338
-2.50721
-2.57383
-2.53338
-2.46775
-2.44158
-2.50721
-2.46775
-2.40311
-2.37694
-2.44158
-2.40311
-2.33946
-2.31329
-2.37694
-2.33946
-2.2768
-2.25062
-2.31329
-2.2768
-2.21512
-2.18895
-2.25062
-2.21512
-2.15443
-2.12826
-2.18895
-2.15443
-2.09473
-2.06855
-2.12826
-2.09473
-2.03601
-2.00984
-2.06855
-2.03601
-1.97829
-1.95211
-2.00984
-1.97829
-1.92155
-1.89537
-1.95211
-1.92155
-1.86579
-1.83962
-1.89537
-1.86579
-1.81103
-1.78486
-1.83962
-1.81103
-1.75725
-1.73108
-1.78486
-1.75725
-1.70447
-1.67829
-1.73108
-1.70447
-1.65266
-1.62649
-1.67829
-1.65266
-1.60185
-1.57568
-1.62649
-1.60185
-1.55203
-1.52585
-1.57568
-1.55203
-1.50319
-1.47701
-1.52585
-1.50319
-1.45534
-1.42916
-1.47701
-1.45534
-1.40847
-1.3823
-1.42916
-1.40847
-1.3626
-1.33643
-1.3823
-1.3626
-1.31771
-1.29154
-1.33643
-1.31771
-1.27381
-1.24764
-1.29154
-1.27381
-1.2309
-1.20473
-1.24764
-1.2309
-1.18898
-1.1628
-1.20473
-1.18898
-1.14804
-1.12187
-1.1628
-1.14804
-1.10809
-1.08192
-1.12187
-1.10809
-1.06913
-1.04296
-1.08192
-1.06913
-1.03115
-1.00498
-1.04296
-1.03115
-0.994169
-0.967996
-1.00498
-0.994169
-0.95817
-0.931997
-0.967996
-0.95817
-0.923159
-0.896986
-0.931997
-0.923159
-0.889136
-0.862963
-0.896986
-0.889136
-0.8561
-0.829928
-0.862963
-0.8561
-0.824052
-0.79788
-0.829928
-0.824052
-0.792992
-0.766819
-0.79788
-0.792992
-0.76292
-0.736747
-0.766819
-0.76292
-0.733835
-0.707662
-0.736747
-0.733835
-0.705737
-0.679565
-0.707662
-0.705737
-0.678628
-0.652455
-0.679565
-0.678628
-0.652506
-0.626333
-0.652455
-0.652506
-0.627372
-0.601199
-0.626333
-0.627372
-0.603225
-0.577052
-0.601199
-0.603225
-0.580066
-0.553893
-0.577052
-0.580066
-0.557895
-0.531722
-0.553893
-0.557895
-0.536711
-0.510538
-0.531722
-0.536711
-0.516515
-0.490342
-0.510538
-0.516515
-0.497306
-0.471134
-0.490342
-0.497306
-0.479086
-0.452913
-0.471134
-0.479086
-0.461853
-0.43568
-0.452913
-0.461853
-0.445607
-0.419434
-0.43568
-0.445607
-0.430349
-0.404177
-0.419434
-0.430349
-0.416079
-0.389906
-0.404177
-0.416079
-0.402797
-0.376624
-0.389906
-0.402797
-0.390502
-0.364329
-0.376624
-0.390502
-0.379195
-0.353022
-0.364329
-0.379195
-0.368875
-0.342702
-0.353022
-0.368875
-0.359543
-0.333371
-0.342702
-0.359543
-0.351199
-0.325026
-0.333371
-0.351199
-0.343843
-0.31767
-0.325026
-0.343843
-0.337474
-0.311301
-0.31767
-0.337474
-0.332093
-0.30592
-0.311301
-0.332093
-0.327699
-0.301526
-0.30592
-0.327699
-0.324293
-0.29812
-0.301526
-0.324293
-0.321875
-0.295702
-0.29812
-0.321875
-0.320444
-0.294271
-0.295702
-0.320444
-0.320001
-0.293828
-0.294271
-0.320001
-0.320546
-0.294373
-0.293828
-0.320546
-0.322078
-0.295906
-0.294373
-0.322078
-0.324598
-0.298426
-0.295906
-0.324598
-0.328106
-0.301933
-0.298426
-0.328106
-0.332601
-0.306428
-0.301933
-0.332601
-0.338084
-0.311911
-0.306428
-0.338084
-0.344555
-0.318382
-0.311911
-0.344555
-0.352013
-0.32584
-0.318382
-0.352013
-0.360459
-0.334286
-0.32584
-0.360459
-0.369893
-0.34372
-0.334286
-0.369893
-0.380314
-0.354141
-0.34372
-0.380314
-0.391723
-0.36555
-0.354141
-0.391723
-0.404119
-0.377947
-0.36555
-0.404119
-0.417504
-0.391331
-0.377947
-0.417504
-0.431875
-0.405703
-0.391331
-0.431875
-0.447235
-0.421062
-0.405703
-0.447235
-0.463582
-0.437409
-0.421062
-0.463582
-0.480917
-0.454744
-0.437409
-0.480917
-0.499239
-0.473067
-0.454744
-0.499239
-0.51855
-0.492377
-0.473067
-0.51855
-0.538847
-0.512675
-0.492377
-0.538847
-0.560133
-0.53396
-0.512675
-0.560133
-0.582406
-0.556233
-0.53396
-0.582406
-0.605667
-0.579494
-0.556233
-0.605667
-0.629915
-0.603742
-0.579494
-0.629915
-0.655151
-0.628978
-0.603742
-0.655151
-0.681375
-0.655202
-0.628978
-0.681375
-0.708586
-0.682413
-0.655202
-0.708586
-0.736785
-0.710612
-0.682413
-0.736785
-0.765972
-0.739799
-0.710612
-5.73293
-5.62977
-5.60459
-5.70775
-5.62977
-5.5276
-5.50242
-5.60459
-5.5276
-5.42642
-5.40123
-5.50242
-5.42642
-5.32622
-5.30104
-5.40123
-5.32622
-5.22701
-5.20183
-5.30104
-5.22701
-5.12879
-5.10361
-5.20183
-5.12879
-5.03156
-5.00637
-5.10361
-5.03156
-4.93531
-4.91013
-5.00637
-4.93531
-4.84006
-4.81487
-4.91013
-4.84006
-4.74579
-4.7206
-4.81487
-4.74579
-4.6525
-4.62732
-4.7206
-4.6525
-4.56021
-4.53502
-4.62732
-4.56021
-4.4689
-4.44372
-4.53502
-4.4689
-4.37858
-4.3534
-4.44372
-4.37858
-4.28925
-4.26406
-4.3534
-4.28925
-4.20091
-4.17572
-4.26406
-4.20091
-4.11355
-4.08836
-4.17572
-4.11355
-4.02718
-4.002
-4.08836
-4.02718
-3.9418
-3.91661
-4.002
-3.9418
-3.85741
-3.83222
-3.91661
-3.85741
-3.774
-3.74881
-3.83222
-3.774
-3.69158
-3.6664
-3.74881
-3.69158
-3.61015
-3.58497
-3.6664
-3.61015
-3.52971
-3.50452
-3.58497
-3.52971
-3.45025
-3.42507
-3.50452
-3.45025
-3.37179
-3.3466
-3.42507
-3.37179
-3.29431
-3.26912
-3.3466
-3.29431
-3.21781
-3.19263
-3.26912
-3.21781
-3.14231
-3.11712
-3.19263
-3.14231
-3.06779
-3.04261
-3.11712
-3.06779
-2.99426
-2.96908
-3.04261
-2.99426
-2.92172
-2.89653
-2.96908
-2.92172
-2.85017
-2.82498
-2.89653
-2.85017
-2.7796
-2.75441
-2.82498
-2.7796
-2.71002
-2.68484
-2.75441
-2.71002
-2.64143
-2.61624
-2.68484
-2.64143
-2.57383
-2.54864
-2.61624
-2.57383
-2.50721
-2.48203
-2.54864
-2.50721
-2.44158
-2.4164
-2.48203
-2.44158
-2.37694
-2.35176
-2.4164
-2.37694
-2.31329
-2.2881
-2.35176
-2.31329
-2.25062
-2.22544
-2.2881
-2.25062
-2.18895
-2.16376
-2.22544
-2.18895
-2.12826
-2.10307
-2.16376
-2.12826
-2.06855
-2.04337
-2.10307
-2.06855
-2.00984
-1.98465
-2.04337
-2.00984
-1.95211
-1.92693
-1.98465
-1.95211
-1.89537
-1.87019
-1.92693
-1.89537
-1.83962
-1.81444
-1.87019
-1.83962
-1.78486
-1.75967
-1.81444
-1.78486
-1.73108
-1.7059
-1.75967
-1.73108
-1.67829
-1.65311
-1.7059
-1.67829
-1.62649
-1.60131
-1.65311
-1.62649
-1.57568
-1.55049
-1.60131
-1.57568
-1.52585
-1.50067
-1.55049
-1.52585
-1.47701
-1.45183
-1.50067
-1.47701
-1.42916
-1.40398
-1.45183
-1.42916
-1.3823
-1.35712
-1.40398
-1.3823
-1.33643
-1.31124
-1.35712
-1.33643
-1.29154
-1.26635
-1.31124
-1.29154
-1.24764
-1.22245
-1.26635
-1.24764
-1.20473
-1.17954
-1.22245
-1.20473
-1.1628
-1.13762
-1.17954
-1.1628
-1.12187
-1.09668
-1.13762
-1.12187
-1.08192
-1.05673
-1.09668
-1.08192
-1.04296
-1.01777
-1.05673
-1.04296
-1.00498
-0.979797
-1.01777
-1.00498
-0.967996
-0.94281
-0.979797
-0.967996
-0.931997
-0.906812
-0.94281
-0.931997
-0.896986
-0.871801
-0.906812
-0.896986
-0.862963
-0.837778
-0.871801
-0.862963
-0.829928
-0.804742
-0.837778
-0.829928
-0.79788
-0.772694
-0.804742
-0.79788
-0.766819
-0.741634
-0.772694
-0.766819
-0.736747
-0.711562
-0.741634
-0.736747
-0.707662
-0.682477
-0.711562
-0.707662
-0.679565
-0.654379
-0.682477
-0.679565
-0.652455
-0.62727
-0.654379
-0.652455
-0.626333
-0.601148
-0.62727
-0.626333
-0.601199
-0.576014
-0.601148
-0.601199
-0.577052
-0.551867
-0.576014
-0.577052
-0.553893
-0.528708
-0.551867
-0.553893
-0.531722
-0.506536
-0.528708
-0.531722
-0.510538
-0.485353
-0.506536
-0.510538
-0.490342
-0.465157
-0.485353
-0.490342
-0.471134
-0.445948
-0.465157
-0.471134
-0.452913
-0.427728
-0.445948
-0.452913
-0.43568
-0.410495
-0.427728
-0.43568
-0.419434
-0.394249
-0.410495
-0.419434
-0.404177
-0.378991
-0.394249
-0.404177
-0.389906
-0.364721
-0.378991
-0.389906
-0.376624
-0.351439
-0.364721
-0.376624
-0.364329
-0.339144
-0.351439
-0.364329
-0.353022
-0.327837
-0.339144
-0.353022
-0.342702
-0.317517
-0.327837
-0.342702
-0.333371
-0.308185
-0.317517
-0.333371
-0.325026
-0.299841
-0.308185
-0.325026
-0.31767
-0.292485
-0.299841
-0.31767
-0.311301
-0.286116
-0.292485
-0.311301
-0.30592
-0.280735
-0.286116
-0.30592
-0.301526
-0.276341
-0.280735
-0.301526
-0.29812
-0.272935
-0.276341
-0.29812
-0.295702
-0.270517
-0.272935
-0.295702
-0.294271
-0.269086
-0.270517
-0.294271
-0.293828
-0.268643
-0.269086
-0.293828
-0.294373
-0.269188
-0.268643
-0.294373
-0.295906
-0.27072
-0.269188
-0.295906
-0.298426
-0.27324
-0.27072
-0.298426
-0.301933
-0.276748
-0.27324
-0.301933
-0.306428
-0.281243
-0.276748
-0.306428
-0.311911
-0.286726
-0.281243
-0.311911
-0.318382
-0.293197
-0.286726
-0.318382
-0.32584
-0.300655
-0.293197
-0.32584
-0.334286
-0.309101
-0.300655
-0.334286
-0.34372
-0.318535
-0.309101
-0.34372
-0.354141
-0.328956
-0.318535
-0.354141
-0.36555
-0.340365
-0.328956
-0.36555
-0.377947
-0.352761
-0.340365
-0.377947
-0.391331
-0.366146
-0.352761
-0.391331
-0.405703
-0.380517
-0.366146
-0.405703
-0.421062
-0.395877
-0.380517
-0.421062
-0.437409
-0.412224
-0.395877
-0.437409
-0.454744
-0.429559
-0.412224
-0.454744
-0.473067
-0.447881
-0.429559
-0.473067
-0.492377
-0.467192
-0.447881
-0.492377
-0.512675
-0.487489
-0.467192
-0.512675
-0.53396
-0.508775
-0.487489
-0.53396
-0.556233
-0.531048
-0.508775
-0.556233
-0.579494
-0.554309
-0.531048
-0.579494
-0.603742
-0.578557
-0.554309
-0.603742
-0.628978
-0.603793
-0.578557
-0.628978
-0.655202
-0.630017
-0.603793
-0.655202
-0.682413
-0.657228
-0.630017
-0.682413
-0.710612
-0.685427
-0.657228
-0.710612
-0.739799
-0.714614
-0.685427
-5.70775
-5.60459
-5.58039
-5.68355
-5.60459
-5.50242
-5.47822
-5.58039
-5.50242
-5.40123
-5.37703
-5.47822
-5.40123
-5.30104
-5.27684
-5.37703
-5.30104
-5.20183
-5.17763
-5.27684
-5.20183
-5.10361
-5.07941
-5.17763
-5.10361
-5.00637
-4.98218
-5.07941
-5.00637
-4.91013
-4.88593
-4.98218
-4.91013
-4.81487
-4.79067
-4.88593
-4.81487
-4.7206
-4.6964
-4.79067
-4.7206
-4.62732
-4.60312
-4.6964
-4.62732
-4.53502
-4.51083
-4.60312
-4.53502
-4.44372
-4.41952
-4.51083
-4.44372
-4.3534
-4.3292
-4.41952
-4.3534
-4.26406
-4.23987
-4.3292
-4.26406
-4.17572
-4.15152
-4.23987
-4.17572
-4.08836
-4.06417
-4.15152
-4.08836
-4.002
-3.9778
-4.06417
-4.002
-3.91661
-3.89242
-3.9778
-3.91661
-3.83222
-3.80802
-3.89242
-3.83222
-3.74881
-3.72462
-3.80802
-3.74881
-3.6664
-3.6422
-3.72462
-3.6664
-3.58497
-3.56077
-3.6422
-3.58497
-3.50452
-3.48033
-3.56077
-3.50452
-3.42507
-3.40087
-3.48033
-3.42507
-3.3466
-3.3224
-3.40087
-3.3466
-3.26912
-3.24492
-3.3224
-3.26912
-3.19263
-3.16843
-3.24492
-3.19263
-3.11712
-3.09293
-3.16843
-3.11712
-3.04261
-3.01841
-3.09293
-3.04261
-2.96908
-2.94488
-3.01841
-2.96908
-2.89653
-2.87234
-2.94488
-2.89653
-2.82498
-2.80078
-2.87234
-2.82498
-2.75441
-2.73022
-2.80078
-2.75441
-2.68484
-2.66064
-2.73022
-2.68484
-2.61624
-2.59205
-2.66064
-2.61624
-2.54864
-2.52444
-2.59205
-2.54864
-2.48203
-2.45783
-2.52444
-2.48203
-2.4164
-2.3922
-2.45783
-2.4164
-2.35176
-2.32756
-2.3922
-2.35176
-2.2881
-2.26391
-2.32756
-2.2881
-2.22544
-2.20124
-2.26391
-2.22544
-2.16376
-2.13956
-2.20124
-2.16376
-2.10307
-2.07887
-2.13956
-2.10307
-2.04337
-2.01917
-2.07887
-2.04337
-1.98465
-1.96046
-2.01917
-1.98465
-1.92693
-1.90273
-1.96046
-1.92693
-1.87019
-1.84599
-1.90273
-1.87019
-1.81444
-1.79024
-1.84599
-1.81444
-1.75967
-1.73548
-1.79024
-1.75967
-1.7059
-1.6817
-1.73548
-1.7059
-1.65311
-1.62891
-1.6817
-1.65311
-1.60131
-1.57711
-1.62891
-1.60131
-1.55049
-1.5263
-1.57711
-1.55049
-1.50067
-1.47647
-1.5263
-1.50067
-1.45183
-1.42763
-1.47647
-1.45183
-1.40398
-1.37978
-1.42763
-1.40398
-1.35712
-1.33292
-1.37978
-1.35712
-1.31124
-1.28704
-1.33292
-1.31124
-1.26635
-1.24216
-1.28704
-1.26635
-1.22245
-1.19826
-1.24216
-1.22245
-1.17954
-1.15534
-1.19826
-1.17954
-1.13762
-1.11342
-1.15534
-1.13762
-1.09668
-1.07248
-1.11342
-1.09668
-1.05673
-1.03253
-1.07248
-1.05673
-1.01777
-0.993573
-1.03253
-1.01777
-0.979797
-0.955599
-0.993573
-0.979797
-0.94281
-0.918613
-0.955599
-0.94281
-0.906812
-0.882614
-0.918613
-0.906812
-0.871801
-0.847604
-0.882614
-0.871801
-0.837778
-0.81358
-0.847604
-0.837778
-0.804742
-0.780545
-0.81358
-0.804742
-0.772694
-0.748497
-0.780545
-0.772694
-0.741634
-0.717437
-0.748497
-0.741634
-0.711562
-0.687364
-0.717437
-0.711562
-0.682477
-0.658279
-0.687364
-0.682477
-0.654379
-0.630182
-0.658279
-0.654379
-0.62727
-0.603072
-0.630182
-0.62727
-0.601148
-0.57695
-0.603072
-0.601148
-0.576014
-0.551816
-0.57695
-0.576014
-0.551867
-0.527669
-0.551816
-0.551867
-0.528708
-0.50451
-0.527669
-0.528708
-0.506536
-0.482339
-0.50451
-0.506536
-0.485353
-0.461155
-0.482339
-0.485353
-0.465157
-0.440959
-0.461155
-0.465157
-0.445948
-0.421751
-0.440959
-0.445948
-0.427728
-0.40353
-0.421751
-0.427728
-0.410495
-0.386297
-0.40353
-0.410495
-0.394249
-0.370052
-0.386297
-0.394249
-0.378991
-0.354794
-0.370052
-0.378991
-0.364721
-0.340524
-0.354794
-0.364721
-0.351439
-0.327241
-0.340524
-0.351439
-0.339144
-0.314946
-0.327241
-0.339144
-0.327837
-0.303639
-0.314946
-0.327837
-0.317517
-0.29332
-0.303639
-0.317517
-0.308185
-0.283988
-0.29332
-0.308185
-0.299841
-0.275644
-0.283988
-0.299841
-0.292485
-0.268287
-0.275644
-0.292485
-0.286116
-0.261918
-0.268287
-0.286116
-0.280735
-0.256537
-0.261918
-0.280735
-0.276341
-0.252144
-0.256537
-0.276341
-0.272935
-0.248738
-0.252144
-0.272935
-0.270517
-0.246319
-0.248738
-0.270517
-0.269086
-0.244889
-0.246319
-0.269086
-0.268643
-0.244446
-0.244889
-0.268643
-0.269188
-0.24499
-0.244446
-0.269188
-0.27072
-0.246523
-0.24499
-0.27072
-0.27324
-0.249043
-0.246523
-0.27324
-0.276748
-0.25255
-0.249043
-0.276748
-0.281243
-0.257046
-0.25255
-0.281243
-0.286726
-0.262529
-0.257046
-0.286726
-0.293197
-0.268999
-0.262529
-0.293197
-0.300655
-0.276458
-0.268999
-0.300655
-0.309101
-0.284904
-0.276458
-0.309101
-0.318535
-0.294337
-0.284904
-0.318535
-0.328956
-0.304758
-0.294337
-0.328956
-0.340365
-0.316167
-0.304758
-0.340365
-0.352761
-0.328564
-0.316167
-0.352761
-0.366146
-0.341948
-0.328564
-0.366146
-0.380517
-0.35632
-0.341948
-0.380517
-0.395877
-0.371679
-0.35632
-0.395877
-0.412224
-0.388027
-0.371679
-0.412224
-0.429559
-0.405361
-0.388027
-0.429559
-0.447881
-0.423684
-0.405361
-0.447881
-0.467192
-0.442994
-0.423684
-0.467192
-0.487489
-0.463292
-0.442994
-0.487489
-0.508775
-0.484577
-0.463292
-0.508775
-0.531048
-0.50685
-0.484577
-0.531048
-0.554309
-0.530111
-0.50685
-0.554309
-0.578557
-0.554359
-0.530111
-0.578557
-0.603793
-0.579596
-0.554359
-0.603793
-0.630017
-0.605819
-0.579596
-0.630017
-0.657228
-0.633031
-0.605819
-0.657228
-0.685427
-0.66123
-0.633031
-0.685427
-0.714614
-0.690416
-0.66123
-5.68355
-5.58039
-5.55718
-5.66034
-5.58039
-5.47822
-5.45501
-5.55718
-5.47822
-5.37703
-5.35382
-5.45501
-5.37703
-5.27684
-5.25363
-5.35382
-5.27684
-5.17763
-5.15442
-5.25363
-5.17763
-5.07941
-5.0562
-5.15442
-5.07941
-4.98218
-4.95897
-5.0562
-4.98218
-4.88593
-4.86272
-4.95897
-4.88593
-4.79067
-4.76746
-4.86272
-4.79067
-4.6964
-4.67319
-4.76746
-4.6964
-4.60312
-4.57991
-4.67319
-4.60312
-4.51083
-4.48762
-4.57991
-4.51083
-4.41952
-4.39631
-4.48762
-4.41952
-4.3292
-4.30599
-4.39631
-4.3292
-4.23987
-4.21666
-4.30599
-4.23987
-4.15152
-4.12831
-4.21666
-4.15152
-4.06417
-4.04096
-4.12831
-4.06417
-3.9778
-3.95459
-4.04096
-3.9778
-3.89242
-3.86921
-3.95459
-3.89242
-3.80802
-3.78481
-3.86921
-3.80802
-3.72462
-3.70141
-3.78481
-3.72462
-3.6422
-3.61899
-3.70141
-3.6422
-3.56077
-3.53756
-3.61899
-3.56077
-3.48033
-3.45712
-3.53756
-3.48033
-3.40087
-3.37766
-3.45712
-3.40087
-3.3224
-3.29919
-3.37766
-3.3224
-3.24492
-3.22171
-3.29919
-3.24492
-3.16843
-3.14522
-3.22171
-3.16843
-3.09293
-3.06972
-3.14522
-3.09293
-3.01841
-2.9952
-3.06972
-3.01841
-2.94488
-2.92167
-2.9952
-2.94488
-2.87234
-2.84913
-2.92167
-2.87234
-2.80078
-2.77757
-2.84913
-2.80078
-2.73022
-2.70701
-2.77757
-2.73022
-2.66064
-2.63743
-2.70701
-2.66064
-2.59205
-2.56884
-2.63743
-2.59205
-2.52444
-2.50123
-2.56884
-2.52444
-2.45783
-2.43462
-2.50123
-2.45783
-2.3922
-2.36899
-2.43462
-2.3922
-2.32756
-2.30435
-2.36899
-2.32756
-2.26391
-2.2407
-2.30435
-2.26391
-2.20124
-2.17803
-2.2407
-2.20124
-2.13956
-2.11635
-2.17803
-2.13956
-2.07887
-2.05566
-2.11635
-2.07887
-2.01917
-1.99596
-2.05566
-2.01917
-1.96046
-1.93725
-1.99596
-1.96046
-1.90273
-1.87952
-1.93725
-1.90273
-1.84599
-1.82278
-1.87952
-1.84599
-1.79024
-1.76703
-1.82278
-1.79024
-1.73548
-1.71227
-1.76703
-1.73548
-1.6817
-1.65849
-1.71227
-1.6817
-1.62891
-1.6057
-1.65849
-1.62891
-1.57711
-1.5539
-1.6057
-1.57711
-1.5263
-1.50309
-1.5539
-1.5263
-1.47647
-1.45326
-1.50309
-1.47647
-1.42763
-1.40442
-1.45326
-1.42763
-1.37978
-1.35657
-1.40442
-1.37978
-1.33292
-1.30971
-1.35657
-1.33292
-1.28704
-1.26383
-1.30971
-1.28704
-1.24216
-1.21895
-1.26383
-1.24216
-1.19826
-1.17505
-1.21895
-1.19826
-1.15534
-1.13213
-1.17505
-1.15534
-1.11342
-1.09021
-1.13213
-1.11342
-1.07248
-1.04927
-1.09021
-1.07248
-1.03253
-1.00932
-1.04927
-1.03253
-0.993573
-0.970363
-1.00932
-0.993573
-0.955599
-0.932389
-0.970363
-0.955599
-0.918613
-0.895403
-0.932389
-0.918613
-0.882614
-0.859405
-0.895403
-0.882614
-0.847604
-0.824394
-0.859405
-0.847604
-0.81358
-0.79037
-0.824394
-0.81358
-0.780545
-0.757335
-0.79037
-0.780545
-0.748497
-0.725287
-0.757335
-0.748497
-0.717437
-0.694227
-0.725287
-0.717437
-0.687364
-0.664154
-0.694227
-0.687364
-0.658279
-0.635069
-0.664154
-0.658279
-0.630182
-0.606972
-0.635069
-0.630182
-0.603072
-0.579862
-0.606972
-0.603072
-0.57695
-0.55374
-0.579862
-0.57695
-0.551816
-0.528606
-0.55374
-0.551816
-0.527669
-0.504459
-0.528606
-0.527669
-0.50451
-0.4813
-0.504459
-0.50451
-0.482339
-0.459129
-0.4813
-0.482339
-0.461155
-0.437945
-0.459129
-0.461155
-0.440959
-0.417749
-0.437945
-0.440959
-0.421751
-0.398541
-0.417749
-0.421751
-0.40353
-0.38032
-0.398541
-0.40353
-0.386297
-0.363087
-0.38032
-0.386297
-0.370052
-0.346842
-0.363087
-0.370052
-0.354794
-0.331584
-0.346842
-0.354794
-0.340524
-0.317314
-0.331584
-0.340524
-0.327241
-0.304031
-0.317314
-0.327241
-0.314946
-0.291737
-0.304031
-0.314946
-0.303639
-0.280429
-0.291737
-0.303639
-0.29332
-0.27011
-0.280429
-0.29332
-0.283988
-0.260778
-0.27011
-0.283988
-0.275644
-0.252434
-0.260778
-0.275644
-0.268287
-0.245077
-0.252434
-0.268287
-0.261918
-0.238708
-0.245077
-0.261918
-0.256537
-0.233327
-0.238708
-0.256537
-0.252144
-0.228934
-0.233327
-0.252144
-0.248738
-0.225528
-0.228934
-0.248738
-0.246319
-0.223109
-0.225528
-0.246319
-0.244889
-0.221679
-0.223109
-0.244889
-0.244446
-0.221236
-0.221679
-0.244446
-0.24499
-0.221781
-0.221236
-0.24499
-0.246523
-0.223313
-0.221781
-0.246523
-0.249043
-0.225833
-0.223313
-0.249043
-0.25255
-0.229341
-0.225833
-0.25255
-0.257046
-0.233836
-0.229341
-0.257046
-0.262529
-0.239319
-0.233836
-0.262529
-0.268999
-0.245789
-0.239319
-0.268999
-0.276458
-0.253248
-0.245789
-0.276458
-0.284904
-0.261694
-0.253248
-0.284904
-0.294337
-0.271127
-0.261694
-0.294337
-0.304758
-0.281549
-0.271127
-0.304758
-0.316167
-0.292957
-0.281549
-0.316167
-0.328564
-0.305354
-0.292957
-0.328564
-0.341948
-0.318738
-0.305354
-0.341948
-0.35632
-0.33311
-0.318738
-0.35632
-0.371679
-0.34847
-0.33311
-0.371679
-0.388027
-0.364817
-0.34847
-0.388027
-0.405361
-0.382152
-0.364817
-0.405361
-0.423684
-0.400474
-0.382152
-0.423684
-0.442994
-0.419784
-0.400474
-0.442994
-0.463292
-0.440082
-0.419784