# vtk DataFile Version 1.0
unstructured Grid
ASCII
DATASET UNSTRUCTURED_GRID
POINTS 23440 float 
0 0	 0.0
0.0222222 0	 0.0
0.0222222 0.0222222	 0.0
0 0.0222222	 0.0
0.0222222 0	 0.0
0.0444444 0	 0.0
0.0444444 0.0222222	 0.0
0.0222222 0.0222222	 0.0
0.0444444 0	 0.0
0.0666667 0	 0.0
0.0666667 0.0222222	 0.0
0.0444444 0.0222222	 0.0
0.0666667 0	 0.0
0.0888889 0	 0.0
0.0888889 0.0222222	 0.0
0.0666667 0.0222222	 0.0
0.0888889 0	 0.0
0.111111 0	 0.0
0.111111 0.0222222	 0.0
0.0888889 0.0222222	 0.0
0.111111 0	 0.0
0.133333 0	 0.0
0.133333 0.0222222	 0.0
0.111111 0.0222222	 0.0
0.133333 0	 0.0
0.155556 0	 0.0
0.155556 0.0222222	 0.0
0.133333 0.0222222	 0.0
0.155556 0	 0.0
0.177778 0	 0.0
0.177778 0.0222222	 0.0
0.155556 0.0222222	 0.0
0.177778 0	 0.0
0.2 0	 0.0
0.2 0.0222222	 0.0
0.177778 0.0222222	 0.0
0.2 0	 0.0
0.222222 0	 0.0
0.222222 0.0222222	 0.0
0.2 0.0222222	 0.0
0.222222 0	 0.0
0.244444 0	 0.0
0.244444 0.0222222	 0.0
0.222222 0.0222222	 0.0
0.244444 0	 0.0
0.266667 0	 0.0
0.266667 0.0222222	 0.0
0.244444 0.0222222	 0.0
0.266667 0	 0.0
0.288889 0	 0.0
0.288889 0.0222222	 0.0
0.266667 0.0222222	 0.0
0.288889 0	 0.0
0.311111 0	 0.0
0.311111 0.0222222	 0.0
0.288889 0.0222222	 0.0
0.311111 0	 0.0
0.333333 0	 0.0
0.333333 0.0222222	 0.0
0.311111 0.0222222	 0.0
0.333333 0	 0.0
0.355556 0	 0.0
0.355556 0.0222222	 0.0
0.333333 0.0222222	 0.0
0.355556 0	 0.0
0.377778 0	 0.0
0.377778 0.0222222	 0.0
0.355556 0.0222222	 0.0
0.377778 0	 0.0
0.4 0	 0.0
0.4 0.0222222	 0.0
0.377778 0.0222222	 0.0
0.4 0	 0.0
0.422222 0	 0.0
0.422222 0.0222222	 0.0
0.4 0.0222222	 0.0
0.422222 0	 0.0
0.444444 0	 0.0
0.444444 0.0222222	 0.0
0.422222 0.0222222	 0.0
0.444444 0	 0.0
0.466667 0	 0.0
0.466667 0.0222222	 0.0
0.444444 0.0222222	 0.0
0.466667 0	 0.0
0.488889 0	 0.0
0.488889 0.0222222	 0.0
0.466667 0.0222222	 0.0
0.488889 0	 0.0
0.511111 0	 0.0
0.511111 0.0222222	 0.0
0.488889 0.0222222	 0.0
0.511111 0	 0.0
0.533333 0	 0.0
0.533333 0.0222222	 0.0
0.511111 0.0222222	 0.0
0.533333 0	 0.0
0.555556 0	 0.0
0.555556 0.0222222	 0.0
0.533333 0.0222222	 0.0
0.555556 0	 0.0
0.577778 0	 0.0
0.577778 0.0222222	 0.0
0.555556 0.0222222	 0.0
0.577778 0	 0.0
0.6 0	 0.0
0.6 0.0222222	 0.0
0.577778 0.0222222	 0.0
0.6 0	 0.0
0.622222 0	 0.0
0.622222 0.0222222	 0.0
0.6 0.0222222	 0.0
0.622222 0	 0.0
0.644444 0	 0.0
0.644444 0.0222222	 0.0
0.622222 0.0222222	 0.0
0.644444 0	 0.0
0.666667 0	 0.0
0.666667 0.0222222	 0.0
0.644444 0.0222222	 0.0
0.666667 0	 0.0
0.688889 0	 0.0
0.688889 0.0222222	 0.0
0.666667 0.0222222	 0.0
0.688889 0	 0.0
0.711111 0	 0.0
0.711111 0.0222222	 0.0
0.688889 0.0222222	 0.0
0.711111 0	 0.0
0.733333 0	 0.0
0.733333 0.0222222	 0.0
0.711111 0.0222222	 0.0
0.733333 0	 0.0
0.755556 0	 0.0
0.755556 0.0222222	 0.0
0.733333 0.0222222	 0.0
0.755556 0	 0.0
0.777778 0	 0.0
0.777778 0.0222222	 0.0
0.755556 0.0222222	 0.0
0.777778 0	 0.0
0.8 0	 0.0
0.8 0.0222222	 0.0
0.777778 0.0222222	 0.0
0.8 0	 0.0
0.822222 0	 0.0
0.822222 0.0222222	 0.0
0.8 0.0222222	 0.0
0.822222 0	 0.0
0.844444 0	 0.0
0.844444 0.0222222	 0.0
0.822222 0.0222222	 0.0
0.844444 0	 0.0
0.866667 0	 0.0
0.866667 0.0222222	 0.0
0.844444 0.0222222	 0.0
0.866667 0	 0.0
0.888889 0	 0.0
0.888889 0.0222222	 0.0
0.866667 0.0222222	 0.0
0.888889 0	 0.0
0.911111 0	 0.0
0.911111 0.0222222	 0.0
0.888889 0.0222222	 0.0
0.911111 0	 0.0
0.933333 0	 0.0
0.933333 0.0222222	 0.0
0.911111 0.0222222	 0.0
0.933333 0	 0.0
0.955556 0	 0.0
0.955556 0.0222222	 0.0
0.933333 0.0222222	 0.0
0.955556 0	 0.0
0.977778 0	 0.0
0.977778 0.0222222	 0.0
0.955556 0.0222222	 0.0
0.977778 0	 0.0
1 0	 0.0
1 0.0222222	 0.0
0.977778 0.0222222	 0.0
1 0	 0.0
1.02222 0	 0.0
1.02222 0.0222222	 0.0
1 0.0222222	 0.0
1.02222 0	 0.0
1.04444 0	 0.0
1.04444 0.0222222	 0.0
1.02222 0.0222222	 0.0
1.04444 0	 0.0
1.06667 0	 0.0
1.06667 0.0222222	 0.0
1.04444 0.0222222	 0.0
1.06667 0	 0.0
1.08889 0	 0.0
1.08889 0.0222222	 0.0
1.06667 0.0222222	 0.0
1.08889 0	 0.0
1.11111 0	 0.0
1.11111 0.0222222	 0.0
1.08889 0.0222222	 0.0
1.11111 0	 0.0
1.13333 0	 0.0
1.13333 0.0222222	 0.0
1.11111 0.0222222	 0.0
1.13333 0	 0.0
1.15556 0	 0.0
1.15556 0.0222222	 0.0
1.13333 0.0222222	 0.0
1.15556 0	 0.0
1.17778 0	 0.0
1.17778 0.0222222	 0.0
1.15556 0.0222222	 0.0
1.17778 0	 0.0
1.2 0	 0.0
1.2 0.0222222	 0.0
1.17778 0.0222222	 0.0
1.2 0	 0.0
1.22222 0	 0.0
1.22222 0.0222222	 0.0
1.2 0.0222222	 0.0
1.22222 0	 0.0
1.24444 0	 0.0
1.24444 0.0222222	 0.0
1.22222 0.0222222	 0.0
1.24444 0	 0.0
1.26667 0	 0.0
1.26667 0.0222222	 0.0
1.24444 0.0222222	 0.0
1.26667 0	 0.0
1.28889 0	 0.0
1.28889 0.0222222	 0.0
1.26667 0.0222222	 0.0
1.28889 0	 0.0
1.31111 0	 0.0
1.31111 0.0222222	 0.0
1.28889 0.0222222	 0.0
1.31111 0	 0.0
1.33333 0	 0.0
1.33333 0.0222222	 0.0
1.31111 0.0222222	 0.0
1.33333 0	 0.0
1.35556 0	 0.0
1.35556 0.0222222	 0.0
1.33333 0.0222222	 0.0
1.35556 0	 0.0
1.37778 0	 0.0
1.37778 0.0222222	 0.0
1.35556 0.0222222	 0.0
1.37778 0	 0.0
1.4 0	 0.0
1.4 0.0222222	 0.0
1.37778 0.0222222	 0.0
1.4 0	 0.0
1.42222 0	 0.0
1.42222 0.0222222	 0.0
1.4 0.0222222	 0.0
1.42222 0	 0.0
1.44444 0	 0.0
1.44444 0.0222222	 0.0
1.42222 0.0222222	 0.0
1.44444 0	 0.0
1.46667 0	 0.0
1.46667 0.0222222	 0.0
1.44444 0.0222222	 0.0
1.46667 0	 0.0
1.48889 0	 0.0
1.48889 0.0222222	 0.0
1.46667 0.0222222	 0.0
1.48889 0	 0.0
1.51111 0	 0.0
1.51111 0.0222222	 0.0
1.48889 0.0222222	 0.0
1.51111 0	 0.0
1.53333 0	 0.0
1.53333 0.0222222	 0.0
1.51111 0.0222222	 0.0
1.53333 0	 0.0
1.55556 0	 0.0
1.55556 0.0222222	 0.0
1.53333 0.0222222	 0.0
1.55556 0	 0.0
1.57778 0	 0.0
1.57778 0.0222222	 0.0
1.55556 0.0222222	 0.0
1.57778 0	 0.0
1.6 0	 0.0
1.6 0.0222222	 0.0
1.57778 0.0222222	 0.0
1.6 0	 0.0
1.62222 0	 0.0
1.62222 0.0222222	 0.0
1.6 0.0222222	 0.0
1.62222 0	 0.0
1.64444 0	 0.0
1.64444 0.0222222	 0.0
1.62222 0.0222222	 0.0
1.64444 0	 0.0
1.66667 0	 0.0
1.66667 0.0222222	 0.0
1.64444 0.0222222	 0.0
1.66667 0	 0.0
1.68889 0	 0.0
1.68889 0.0222222	 0.0
1.66667 0.0222222	 0.0
1.68889 0	 0.0
1.71111 0	 0.0
1.71111 0.0222222	 0.0
1.68889 0.0222222	 0.0
1.71111 0	 0.0
1.73333 0	 0.0
1.73333 0.0222222	 0.0
1.71111 0.0222222	 0.0
1.73333 0	 0.0
1.75556 0	 0.0
1.75556 0.0222222	 0.0
1.73333 0.0222222	 0.0
1.75556 0	 0.0
1.77778 0	 0.0
1.77778 0.0222222	 0.0
1.75556 0.0222222	 0.0
1.77778 0	 0.0
1.8 0	 0.0
1.8 0.0222222	 0.0
1.77778 0.0222222	 0.0
1.8 0	 0.0
1.82222 0	 0.0
1.82222 0.0222222	 0.0
1.8 0.0222222	 0.0
1.82222 0	 0.0
1.84444 0	 0.0
1.84444 0.0222222	 0.0
1.82222 0.0222222	 0.0
1.84444 0	 0.0
1.86667 0	 0.0
1.86667 0.0222222	 0.0
1.84444 0.0222222	 0.0
1.86667 0	 0.0
1.88889 0	 0.0
1.88889 0.0222222	 0.0
1.86667 0.0222222	 0.0
1.88889 0	 0.0
1.91111 0	 0.0
1.91111 0.0222222	 0.0
1.88889 0.0222222	 0.0
1.91111 0	 0.0
1.93333 0	 0.0
1.93333 0.0222222	 0.0
1.91111 0.0222222	 0.0
1.93333 0	 0.0
1.95556 0	 0.0
1.95556 0.0222222	 0.0
1.93333 0.0222222	 0.0
1.95556 0	 0.0
1.97778 0	 0.0
1.97778 0.0222222	 0.0
1.95556 0.0222222	 0.0
1.97778 0	 0.0
2 0	 0.0
2 0.0222222	 0.0
1.97778 0.0222222	 0.0
2 0	 0.0
2.02222 0	 0.0
2.02222 0.0222222	 0.0
2 0.0222222	 0.0
2.02222 0	 0.0
2.04444 0	 0.0
2.04444 0.0222222	 0.0
2.02222 0.0222222	 0.0
2.04444 0	 0.0
2.06667 0	 0.0
2.06667 0.0222222	 0.0
2.04444 0.0222222	 0.0
2.06667 0	 0.0
2.08889 0	 0.0
2.08889 0.0222222	 0.0
2.06667 0.0222222	 0.0
2.08889 0	 0.0
2.11111 0	 0.0
2.11111 0.0222222	 0.0
2.08889 0.0222222	 0.0
2.11111 0	 0.0
2.13333 0	 0.0
2.13333 0.0222222	 0.0
2.11111 0.0222222	 0.0
2.13333 0	 0.0
2.15556 0	 0.0
2.15556 0.0222222	 0.0
2.13333 0.0222222	 0.0
2.15556 0	 0.0
2.17778 0	 0.0
2.17778 0.0222222	 0.0
2.15556 0.0222222	 0.0
2.17778 0	 0.0
2.2 0	 0.0
2.2 0.0222222	 0.0
2.17778 0.0222222	 0.0
2.2 0	 0.0
2.22222 0	 0.0
2.22222 0.0222222	 0.0
2.2 0.0222222	 0.0
2.22222 0	 0.0
2.24444 0	 0.0
2.24444 0.0222222	 0.0
2.22222 0.0222222	 0.0
2.24444 0	 0.0
2.26667 0	 0.0
2.26667 0.0222222	 0.0
2.24444 0.0222222	 0.0
2.26667 0	 0.0
2.28889 0	 0.0
2.28889 0.0222222	 0.0
2.26667 0.0222222	 0.0
2.28889 0	 0.0
2.31111 0	 0.0
2.31111 0.0222222	 0.0
2.28889 0.0222222	 0.0
2.31111 0	 0.0
2.33333 0	 0.0
2.33333 0.0222222	 0.0
2.31111 0.0222222	 0.0
2.33333 0	 0.0
2.35556 0	 0.0
2.35556 0.0222222	 0.0
2.33333 0.0222222	 0.0
2.35556 0	 0.0
2.37778 0	 0.0
2.37778 0.0222222	 0.0
2.35556 0.0222222	 0.0
2.37778 0	 0.0
2.4 0	 0.0
2.4 0.0222222	 0.0
2.37778 0.0222222	 0.0
2.4 0	 0.0
2.42222 0	 0.0
2.42222 0.0222222	 0.0
2.4 0.0222222	 0.0
2.42222 0	 0.0
2.44444 0	 0.0
2.44444 0.0222222	 0.0
2.42222 0.0222222	 0.0
2.44444 0	 0.0
2.46667 0	 0.0
2.46667 0.0222222	 0.0
2.44444 0.0222222	 0.0
2.46667 0	 0.0
2.48889 0	 0.0
2.48889 0.0222222	 0.0
2.46667 0.0222222	 0.0
2.48889 0	 0.0
2.51111 0	 0.0
2.51111 0.0222222	 0.0
2.48889 0.0222222	 0.0
2.51111 0	 0.0
2.53333 0	 0.0
2.53333 0.0222222	 0.0
2.51111 0.0222222	 0.0
2.53333 0	 0.0
2.55556 0	 0.0
2.55556 0.0222222	 0.0
2.53333 0.0222222	 0.0
2.55556 0	 0.0
2.57778 0	 0.0
2.57778 0.0222222	 0.0
2.55556 0.0222222	 0.0
2.57778 0	 0.0
2.6 0	 0.0
2.6 0.0222222	 0.0
2.57778 0.0222222	 0.0
2.6 0	 0.0
2.62222 0	 0.0
2.62222 0.0222222	 0.0
2.6 0.0222222	 0.0
2.62222 0	 0.0
2.64444 0	 0.0
2.64444 0.0222222	 0.0
2.62222 0.0222222	 0.0
2.64444 0	 0.0
2.66667 0	 0.0
2.66667 0.0222222	 0.0
2.64444 0.0222222	 0.0
2.66667 0	 0.0
2.68889 0	 0.0
2.68889 0.0222222	 0.0
2.66667 0.0222222	 0.0
2.68889 0	 0.0
2.71111 0	 0.0
2.71111 0.0222222	 0.0
2.68889 0.0222222	 0.0
2.71111 0	 0.0
2.73333 0	 0.0
2.73333 0.0222222	 0.0
2.71111 0.0222222	 0.0
2.73333 0	 0.0
2.75556 0	 0.0
2.75556 0.0222222	 0.0
2.73333 0.0222222	 0.0
2.75556 0	 0.0
2.77778 0	 0.0
2.77778 0.0222222	 0.0
2.75556 0.0222222	 0.0
2.77778 0	 0.0
2.8 0	 0.0
2.8 0.0222222	 0.0
2.77778 0.0222222	 0.0
2.8 0	 0.0
2.82222 0	 0.0
2.82222 0.0222222	 0.0
2.8 0.0222222	 0.0
2.82222 0	 0.0
2.84444 0	 0.0
2.84444 0.0222222	 0.0
2.82222 0.0222222	 0.0
2.84444 0	 0.0
2.86667 0	 0.0
2.86667 0.0222222	 0.0
2.84444 0.0222222	 0.0
2.86667 0	 0.0
2.88889 0	 0.0
2.88889 0.0222222	 0.0
2.86667 0.0222222	 0.0
2.88889 0	 0.0
2.91111 0	 0.0
2.91111 0.0222222	 0.0
2.88889 0.0222222	 0.0
2.91111 0	 0.0
[...]
POINT_DATA 23440
SCALARS levelset_first float
LOOKUP_TABLE default
-2.01564
-1.95826
-1.93209
-1.98947
-1.95826
-1.90187
-1.87569
-1.93209
-1.90187
-1.84646
-1.82029
-1.87569
-1.84646
-1.79204
-1.76587
-1.82029
-1.79204
-1.73861
-1.71244
-1.76587
-1.73861
-1.68617
-1.66
-1.71244
-1.68617
-1.63472
-1.60854
-1.66
-1.63472
-1.58425
-1.55808
-1.60854
-1.58425
-1.53477
-1.5086
-1.55808
-1.53477
-1.48628
-1.46011
-1.5086
-1.48628
-1.43878
-1.4126
-1.46011
-1.43878
-1.39226
-1.36609
-1.4126
-1.39226
-1.34673
-1.32056
-1.36609
-1.34673
-1.30219
-1.27602
-1.32056
-1.30219
-1.25864
-1.23247
-1.27602
-1.25864
-1.21607
-1.1899
-1.23247
-1.21607
-1.1745
-1.14832
-1.1899
-1.1745
-1.1339
-1.10773
-1.14832
-1.1339
-1.0943
-1.06813
-1.10773
-1.0943
-1.05569
-1.02951
-1.06813
-1.05569
-1.01806
-0.991888
-1.02951
-1.01806
-0.981421
-0.955248
-0.991888
-0.981421
-0.945769
-0.919596
-0.955248
-0.945769
-0.911105
-0.884932
-0.919596
-0.911105
-0.877428
-0.851255
-0.884932
-0.877428
-0.844739
-0.818567
-0.851255
-0.844739
-0.813038
-0.786865
-0.818567
-0.813038
-0.782325
-0.756152
-0.786865
-0.782325
-0.752599
-0.726426
-0.756152
-0.752599
-0.72386
-0.697688
-0.726426
-0.72386
-0.69611
-0.669937
-0.697688
-0.69611
-0.669347
-0.643174
-0.669937
-0.669347
-0.643572
-0.617399
-0.643174
-0.643572
-0.618784
-0.592611
-0.617399
-0.618784
-0.594984
-0.568811
-0.592611
-0.594984
-0.572171
-0.545999
-0.568811
-0.572171
-0.550347
-0.524174
-0.545999
-0.550347
-0.52951
-0.503337
-0.524174
-0.52951
-0.50966
-0.483488
-0.503337
-0.50966
-0.490799
-0.464626
-0.483488
-0.490799
-0.472925
-0.446752
-0.464626
-0.472925
-0.456038
-0.429865
-0.446752
-0.456038
-0.440139
-0.413967
-0.429865
-0.440139
-0.425228
-0.399055
-0.413967
-0.425228
-0.411305
-0.385132
-0.399055
-0.411305
-0.398369
-0.372196
-0.385132
-0.398369
-0.386421
-0.360248
-0.372196
-0.386421
-0.37546
-0.349287
-0.360248
-0.37546
-0.365487
-0.339315
-0.349287
-0.365487
-0.356502
-0.330329
-0.339315
-0.356502
-0.348505
-0.322332
-0.330329
-0.348505
-0.341495
-0.315322
-0.322332
-0.341495
-0.335473
-0.3093
-0.315322
-0.335473
-0.330438
-0.304265
-0.3093
-0.330438
-0.326391
-0.300218
-0.304265
-0.326391
-0.323332
-0.297159
-0.300218
-0.323332
-0.32126
-0.295087
-0.297159
-0.32126
-0.320176
-0.294003
-0.295087
-0.320176
-0.32008
-0.293907
-0.294003
-0.32008
-0.320971
-0.294799
-0.293907
-0.320971
-0.32285
-0.296678
-0.294799
-0.32285
-0.325717
-0.299544
-0.296678
-0.325717
-0.329571
-0.303398
-0.299544
-0.329571
-0.334413
-0.30824
-0.303398
-0.334413
-0.340243
-0.31407
-0.30824
-0.340243
-0.34706
-0.320887
-0.31407
-0.34706
-0.354865
-0.328692
-0.320887
-0.354865
-0.363658
-0.337485
-0.328692
-0.363658
-0.373438
-0.347265
-0.337485
-0.373438
-0.384206
-0.358033
-0.347265
-0.384206
-0.395961
-0.369789
-0.358033
-0.395961
-0.408705
-0.382532
-0.369789
-0.408705
-0.422435
-0.396263
-0.382532
-0.422435
-0.437154
-0.410981
-0.396263
-0.437154
-0.45286
-0.426687
-0.410981
-0.45286
-0.469554
-0.443381
-0.426687
-0.469554
-0.487235
-0.461063
-0.443381
-0.487235
-0.505905
-0.479732
-0.461063
-0.505905
-0.525561
-0.499389
-0.479732
-0.525561
-0.546206
-0.520033
-0.499389
-0.546206
-0.567838
-0.541665
-0.520033
-0.567838
-0.590458
-0.564285
-0.541665
-0.590458
-0.614065
-0.587892
-0.564285
-0.614065
-0.63866
-0.612487
-0.587892
-0.63866
-0.664243
-0.63807
-0.612487
-0.664243
-0.690813
-0.66464
-0.63807
-0.690813
-0.718371
-0.692198
-0.66464
-0.718371
-0.746917
-0.720744
-0.692198
-0.746917
-0.77645
-0.750277
-0.720744
-0.77645
-0.806971
-0.780798
-0.750277
-0.806971
-0.83848
-0.812307
-0.780798
-0.83848
-0.870976
-0.844803
-0.812307
-0.870976
-0.90446
-0.878287
-0.844803
-0.90446
-0.938932
-0.912759
-0.878287
-0.938932
-0.974391
-0.948218
-0.912759
-0.974391
-1.01084
-0.984665
-0.948218
-1.01084
-1.04827
-1.0221
-0.984665
-1.04827
-1.08669
-1.06052
-1.0221
-1.08669
-1.1261
-1.09993
-1.06052
-1.1261
-1.1665
-1.14033
-1.09993
-1.1665
-1.20789
-1.18171
-1.14033
-1.20789
-1.25026
-1.22409
-1.18171
-1.25026
-1.29362
-1.26745
-1.22409
-1.29362
-1.33797
-1.3118
-1.26745
-1.33797
-1.3833
-1.35713
-1.3118
-1.3833
-1.42963
-1.40346
-1.35713
-1.42963
-1.47694
-1.45077
-1.40346
-1.47694
-1.52524
-1.49906
-1.45077
-1.52524
-1.57452
-1.54835
-1.49906
-1.57452
-1.6248
-1.59863
-1.54835
-1.6248
-1.67606
-1.64989
-1.59863
-1.67606
-1.72831
-1.70214
-1.64989
-1.72831
-1.78155
-1.75537
-1.70214
-1.78155
-1.83577
-1.8096
-1.75537
-1.83577
-1.89098
-1.86481
-1.8096
-1.89098
-1.94718
-1.92101
-1.86481
-1.94718
-2.00437
-1.9782
-1.92101
-2.00437
-2.06255
-2.03637
-1.9782
-2.06255
-2.12171
-2.09554
-2.03637
-2.12171
-2.18186
-2.15569
-2.09554
-2.18186
-2.243
-2.21683
-2.15569
-2.243
-2.30512
-2.27895
-2.21683
-2.30512
-2.36824
-2.34206
-2.27895
-2.36824
-2.43234
-2.40617
-2.34206
-2.43234
-2.49743
-2.47125
-2.40617
-2.49743
-2.5635
-2.53733
-2.47125
-2.5635
-2.63057
-2.6044
-2.53733
-2.63057
-2.69862
-2.67245
-2.6044
-2.69862
-2.76766
-2.74149
-2.67245
-2.76766
-2.83769
-2.81151
-2.74149
-2.83769
-2.9087
-2.88253
-2.81151
-2.9087
-2.9807
-2.95453
-2.88253
-2.9807
-3.05369
-3.02752
-2.95453
-3.05369
-3.12767
-3.1015
-3.02752
-3.12767
-3.20264
-3.17646
-3.1015
-1.98947
-1.93209
-1.9069
-1.96428
-1.93209
-1.87569
-1.85051
-1.9069
-1.87569
-1.82029
-1.7951
-1.85051
-1.82029
-1.76587
-1.74069
-1.7951
-1.76587
-1.71244
-1.68726
-1.74069
-1.71244
-1.66
-1.63481
-1.68726
-1.66
-1.60854
-1.58336
-1.63481
-1.60854
-1.55808
-1.53289
-1.58336
-1.55808
-1.5086
-1.48341
-1.53289
-1.5086
-1.46011
-1.43492
-1.48341
-1.46011
-1.4126
-1.38742
-1.43492
-1.4126
-1.36609
-1.3409
-1.38742
-1.36609
-1.32056
-1.29537
-1.3409
-1.32056
-1.27602
-1.25083
-1.29537
-1.27602
-1.23247
-1.20728
-1.25083
-1.23247
-1.1899
-1.16471
-1.20728
-1.1899
-1.14832
-1.12314
-1.16471
-1.14832
-1.10773
-1.08255
-1.12314
-1.10773
-1.06813
-1.04294
-1.08255
-1.06813
-1.02951
-1.00433
-1.04294
-1.02951
-0.991888
-0.966702
-1.00433
-0.991888
-0.955248
-0.930063
-0.966702
-0.955248
-0.919596
-0.894411
-0.930063
-0.919596
-0.884932
-0.859747
-0.894411
-0.884932
-0.851255
-0.82607
-0.859747
-0.851255
-0.818567
-0.793381
-0.82607
-0.818567
-0.786865
-0.76168
-0.793381
-0.786865
-0.756152
-0.730967
-0.76168
-0.756152
-0.726426
-0.701241
-0.730967
-0.726426
-0.697688
-0.672502
-0.701241
-0.697688
-0.669937
-0.644752
-0.672502
-0.669937
-0.643174
-0.617989
-0.644752
-0.643174
-0.617399
-0.592213
-0.617989
-0.617399
-0.592611
-0.567426
-0.592213
-0.592611
-0.568811
-0.543626
-0.567426
-0.568811
-0.545999
-0.520813
-0.543626
-0.545999
-0.524174
-0.498989
-0.520813
-0.524174
-0.503337
-0.478152
-0.498989
-0.503337
-0.483488
-0.458302
-0.478152
-0.483488
-0.464626
-0.439441
-0.458302
-0.464626
-0.446752
-0.421567
-0.439441
-0.446752
-0.429865
-0.40468
-0.421567
-0.429865
-0.413967
-0.388781
-0.40468
-0.413967
-0.399055
-0.37387
-0.388781
-0.399055
-0.385132
-0.359947
-0.37387
-0.385132
-0.372196
-0.347011
-0.359947
-0.372196
-0.360248
-0.335063
-0.347011
-0.360248
-0.349287
-0.324102
-0.335063
-0.349287
-0.339315
-0.314129
-0.324102
-0.339315
-0.330329
-0.305144
-0.314129
-0.330329
-0.322332
-0.297147
-0.305144
-0.322332
-0.315322
-0.290137
-0.297147
-0.315322
-0.3093
-0.284115
-0.290137
-0.3093
-0.304265
-0.27908
-0.284115
-0.304265
-0.300218
-0.275033
-0.27908
-0.300218
-0.297159
-0.271974
-0.275033
-0.297159
-0.295087
-0.269902
-0.271974
-0.295087
-0.294003
-0.268818
-0.269902
-0.294003
-0.293907
-0.268722
-0.268818
-0.293907
-0.294799
-0.269613
-0.268722
-0.294799
-0.296678
-0.271492
-0.269613
-0.296678
-0.299544
-0.274359
-0.271492
-0.299544
-0.303398
-0.278213
-0.274359
-0.303398
-0.30824
-0.283055
-0.278213
-0.30824
-0.31407
-0.288885
-0.283055
-0.31407
-0.320887
-0.295702
-0.288885
-0.320887
-0.328692
-0.303507
-0.295702
-0.328692
-0.337485
-0.3123
-0.303507
-0.337485
-0.347265
-0.32208
-0.3123
-0.347265
-0.358033
-0.332848
-0.32208
-0.358033
-0.369789
-0.344603
-0.332848
-0.369789
-0.382532
-0.357347
-0.344603
-0.382532
-0.396263
-0.371077
-0.357347
-0.396263
-0.410981
-0.385796
-0.371077
-0.410981
-0.426687
-0.401502
-0.385796
-0.426687
-0.443381
-0.418196
-0.401502
-0.443381
-0.461063
-0.435877
-0.418196
-0.461063
-0.479732
-0.454547
-0.435877
-0.479732
-0.499389
-0.474203
-0.454547
-0.499389
-0.520033
-0.494848
-0.474203
-0.520033
-0.541665
-0.51648
-0.494848
-0.541665
-0.564285
-0.5391
-0.51648
-0.564285
-0.587892
-0.562707
-0.5391
-0.587892
-0.612487
-0.587302
-0.562707
-0.612487
-0.63807
-0.612885
-0.587302
-0.63807
-0.66464
-0.639455
-0.612885
-0.66464
-0.692198
-0.667013
-0.639455
-0.692198
-0.720744
-0.695559
-0.667013
-0.720744
-0.750277
-0.725092
-0.695559
-0.750277
-0.780798
-0.755613
-0.725092
-0.780798
-0.812307
-0.787122
-0.755613
-0.812307
-0.844803
-0.819618
-0.787122
-0.844803
-0.878287
-0.853102
-0.819618
-0.878287
-0.912759
-0.887574
-0.853102
-0.912759
-0.948218
-0.923033
-0.887574
-0.948218
-0.984665
-0.95948
-0.923033
-0.984665
-1.0221
-0.996914
-0.95948
-1.0221
-1.06052
-1.03534
-0.996914
-1.06052
-1.09993
-1.07475
-1.03534
-1.09993
-1.14033
-1.11514
-1.07475
-1.14033
-1.18171
-1.15653
-1.11514
-1.18171
-1.22409
-1.1989
-1.15653
-1.22409
-1.26745
-1.24226
-1.1989
-1.26745
-1.3118
-1.28661
-1.24226
-1.3118
-1.35713
-1.33195
-1.28661
-1.35713
-1.40346
-1.37827
-1.33195
-1.40346
-1.45077
-1.42558
-1.37827
-1.45077
-1.49906
-1.47388
-1.42558
-1.49906
-1.54835
-1.52317
-1.47388
-1.54835
-1.59863
-1.57344
-1.52317
-1.59863
-1.64989
-1.6247
-1.57344
-1.64989
-1.70214
-1.67695
-1.6247
-1.70214
-1.75537
-1.73019
-1.67695
-1.75537
-1.8096
-1.78441
-1.73019
-1.8096
-1.86481
-1.83963
-1.78441
-1.86481
-1.92101
-1.89583
-1.83963
-1.92101
-1.9782
-1.95301
-1.89583
-1.9782
-2.03637
-2.01119
-1.95301
-2.03637
-2.09554
-2.07035
-2.01119
-2.09554
-2.15569
-2.1305
-2.07035
-2.15569
-2.21683
-2.19164
-2.1305
-2.21683
-2.27895
-2.25377
-2.19164
-2.27895
-2.34206
-2.31688
-2.25377
-2.34206
-2.40617
-2.38098
-2.31688
-2.40617
-2.47125
-2.44607
-2.38098
-2.47125
-2.53733
-2.51215
-2.44607
-2.53733
-2.6044
-2.57921
-2.51215
-2.6044
-2.67245
-2.64726
-2.57921
-2.67245
-2.74149
-2.7163
-2.64726
-2.74149
-2.81151
-2.78633
-2.7163
-2.81151
-2.88253
-2.85734
-2.78633
-2.88253
-2.95453
-2.92935
-2.85734
-2.95453
-3.02752
-3.00234
-2.92935
-3.02752
-3.1015
-3.07631
-3.00234
-3.1015
-3.17646
-3.15128
-3.07631
-1.96428
-1.9069
-1.8827
-1.94008
-1.9069
-1.85051
-1.82631
-1.8827
-1.85051
-1.7951
-1.7709
-1.82631
-1.7951
-1.74069
-1.71649
-1.7709
-1.74069
-1.68726
-1.66306
-1.71649
-1.68726
-1.63481
-1.61062
-1.66306
-1.63481
-1.58336
-1.55916
-1.61062
-1.58336
-1.53289
-1.5087
-1.55916
-1.53289
-1.48341
-1.45922
-1.5087
-1.48341
-1.43492
-1.41072
-1.45922
-1.43492
-1.38742
-1.36322
-1.41072
-1.38742
-1.3409
-1.3167
-1.36322
-1.3409
-1.29537
-1.27118
-1.3167
-1.29537
-1.25083
-1.22664
-1.27118
-1.25083
-1.20728
-1.18308
-1.22664
-1.20728
-1.16471
-1.14052
-1.18308
-1.16471
-1.12314
-1.09894
-1.14052
-1.12314
-1.08255
-1.05835
-1.09894
-1.08255
-1.04294
-1.01875
-1.05835
-1.04294
-1.00433
-0.980132
-1.01875
-1.00433
-0.966702
-0.942505
-0.980132
-0.966702
-0.930063
-0.905865
-0.942505
-0.930063
-0.894411
-0.870214
-0.905865
-0.894411
-0.859747
-0.835549
-0.870214
-0.859747
-0.82607
-0.801873
-0.835549
-0.82607
-0.793381
-0.769184
-0.801873
-0.793381
-0.76168
-0.737483
-0.769184
-0.76168
-0.730967
-0.706769
-0.737483
-0.730967
-0.701241
-0.677043
-0.706769
-0.701241
-0.672502
-0.648305
-0.677043
-0.672502
-0.644752
-0.620554
-0.648305
-0.644752
-0.617989
-0.593791
-0.620554
-0.617989
-0.592213
-0.568016
-0.593791
-0.592213
-0.567426
-0.543228
-0.568016
-0.567426
-0.543626
-0.519428
-0.543228
-0.543626
-0.520813
-0.496616
-0.519428
-0.520813
-0.498989
-0.474791
-0.496616
-0.498989
-0.478152
-0.453954
-0.474791
-0.478152
-0.458302
-0.434105
-0.453954
-0.458302
-0.439441
-0.415243
-0.434105
-0.439441
-0.421567
-0.397369
-0.415243
-0.421567
-0.40468
-0.380483
-0.397369
-0.40468
-0.388781
-0.364584
-0.380483
-0.388781
-0.37387
-0.349673
-0.364584
-0.37387
-0.359947
-0.335749
-0.349673
-0.359947
-0.347011
-0.322813
-0.335749
-0.347011
-0.335063
-0.310865
-0.322813
-0.335063
-0.324102
-0.299905
-0.310865
-0.324102
-0.314129
-0.289932
-0.299905
-0.314129
-0.305144
-0.280947
-0.289932
-0.305144
-0.297147
-0.272949
-0.280947
-0.297147
-0.290137
-0.265939
-0.272949
-0.290137
-0.284115
-0.259917
-0.265939
-0.284115
-0.27908
-0.254882
-0.259917
-0.27908
-0.275033
-0.250836
-0.254882
-0.275033
-0.271974
-0.247776
-0.250836
-0.271974
-0.269902
-0.245705
-0.247776
-0.269902
-0.268818
-0.244621
-0.245705
-0.268818
-0.268722
-0.244524
-0.244621
-0.268722
-0.269613
-0.245416
-0.244524
-0.269613
-0.271492
-0.247295
-0.245416
-0.271492
-0.274359
-0.250161
-0.247295
-0.274359
-0.278213
-0.254016
-0.250161
-0.278213
-0.283055
-0.258858
-0.254016
-0.283055
-0.288885
-0.264687
-0.258858
-0.288885
-0.295702
-0.271505
-0.264687
-0.295702
-0.303507
-0.27931
-0.271505
-0.303507
-0.3123
-0.288102
-0.27931
-0.3123
-0.32208
-0.297882
-0.288102
-0.32208
-0.332848
-0.30865
-0.297882
-0.332848
-0.344603
-0.320406
-0.30865
-0.344603
-0.357347
-0.333149
-0.320406
-0.357347
-0.371077
-0.34688
-0.333149
-0.371077
-0.385796
-0.361598
-0.34688
-0.385796
-0.401502
-0.377305
-0.361598
-0.401502
-0.418196
-0.393998
-0.377305
-0.418196
-0.435877
-0.41168
-0.393998
-0.435877
-0.454547
-0.430349
-0.41168
-0.454547
-0.474203
-0.450006
-0.430349
-0.474203
-0.494848
-0.47065
-0.450006
-0.494848
-0.51648
-0.492282
-0.47065
-0.51648
-0.5391
-0.514902
-0.492282
-0.5391
-0.562707
-0.538509
-0.514902
-0.562707
-0.587302
-0.563105
-0.538509
-0.587302
-0.612885
-0.588687
-0.563105
-0.612885
-0.639455
-0.615258
-0.588687
-0.639455
-0.667013
-0.642816
-0.615258
-0.667013
-0.695559
-0.671361
-0.642816
-0.695559
-0.725092
-0.700895
-0.671361
-0.725092
-0.755613
-0.731416
-0.700895
-0.755613
-0.787122
-0.762924
-0.731416
-0.787122
-0.819618
-0.795421
-0.762924
-0.819618
-0.853102
-0.828905
-0.795421
-0.853102
-0.887574
-0.863376
-0.828905
-0.887574
-0.923033
-0.898835
-0.863376
-0.923033
-0.95948
-0.935282
-0.898835
-0.95948
-0.996914
-0.972717
-0.935282
-0.996914
-1.03534
-1.01114
-0.972717
-1.03534
-1.07475
-1.05055
-1.01114
-1.07475
-1.11514
-1.09095
-1.05055
-1.11514
-1.15653
-1.13233
-1.09095
-1.15653
-1.1989
-1.1747
-1.13233
-1.1989
-1.24226
-1.21806
-1.1747
-1.24226
-1.28661
-1.26241
-1.21806
-1.28661
-1.33195
-1.30775
-1.26241
-1.33195
-1.37827
-1.35407
-1.30775
-1.37827
-1.42558
-1.40138
-1.35407
-1.42558
-1.47388
-1.44968
-1.40138
-1.47388
-1.52317
-1.49897
-1.44968
-1.52317
-1.57344
-1.54924
-1.49897
-1.57344
-1.6247
-1.6005
-1.54924
-1.6247
-1.67695
-1.65275
-1.6005
-1.67695
-1.73019
-1.70599
-1.65275
-1.73019
-1.78441
-1.76022
-1.70599
-1.78441
-1.83963
-1.81543
-1.76022
-1.83963
-1.89583
-1.87163
-1.81543
-1.89583
-1.95301
-1.92882
-1.87163
-1.95301
-2.01119
-1.98699
-1.92882
-2.01119
-2.07035
-2.04615
-1.98699
-2.07035
-2.1305
-2.1063
-2.04615
-2.1305
-2.19164
-2.16744
-2.1063
-2.19164
-2.25377
-2.22957
-2.16744
-2.25377
-2.31688
-2.29268
-2.22957
-2.31688
-2.38098
-2.35678
-2.29268
-2.38098
-2.44607
-2.42187
-2.35678
-2.44607
-2.51215
-2.48795
-2.42187
-2.51215
-2.57921
-2.55501
-2.48795
-2.57921
-2.64726
-2.62306
-2.55501
-2.64726
-2.7163
-2.6921
-2.62306
-2.7163
-2.78633
-2.76213
-2.6921
-2.78633
-2.85734
-2.83315
-2.76213
-2.85734
-2.92935
-2.90515
-2.83315
-2.92935
-3.00234
-2.97814
-2.90515
-3.00234
-3.07631
-3.05212
-2.97814
-3.07631
-3.15128
-3.12708
-3.05212
-1.94008
-1.8827
-1.85949
-1.91687
-1.8827
-1.82631
-1.8031
-1.85949
-1.82631
-1.7709
-1.7477
-1.8031
-1.7709
-1.71649
-1.69328
-1.7477
-1.71649
-1.66306
-1.63985
-1.69328
-1.66306
-1.61062
-1.58741
-1.63985
-1.61062
-1.55916
-1.53595
-1.58741
-1.55916
-1.5087
-1.48549
-1.53595
-1.5087
-1.45922
-1.43601
-1.48549
-1.45922
-1.41072
-1.38751
-1.43601
-1.41072
-1.36322
-1.34001
-1.38751
-1.36322
-1.3167
-1.2935
-1.34001
-1.3167
-1.27118
-1.24797
-1.2935
-1.27118
-1.22664
-1.20343
-1.24797
-1.22664
-1.18308
-1.15987
-1.20343
-1.18308
-1.14052
-1.11731
-1.15987
-1.14052
-1.09894
-1.07573
-1.11731
-1.09894
-1.05835
-1.03514
-1.07573
-1.05835
-1.01875
-0.995537
-1.03514
-1.01875
-0.980132
-0.956922
-0.995537
-0.980132
-0.942505
-0.919295
-0.956922
-0.942505
-0.905865
-0.882656
-0.919295
-0.905865
-0.870214
-0.847004
-0.882656
-0.870214
-0.835549
-0.812339
-0.847004
-0.835549
-0.801873
-0.778663
-0.812339
-0.801873
-0.769184
-0.745974
-0.778663
-0.769184
-0.737483
-0.714273
-0.745974
-0.737483
-0.706769
-0.683559
-0.714273
-0.706769
-0.677043
-0.653833
-0.683559
-0.677043
-0.648305
-0.625095
-0.653833
-0.648305
-0.620554
-0.597344
-0.625095
-0.620554
-0.593791
-0.570581
-0.597344
-0.593791
-0.568016
-0.544806
-0.570581
-0.568016
-0.543228
-0.520018
-0.544806
-0.543228
-0.519428
-0.496218
-0.520018
-0.519428
-0.496616
-0.473406
-0.496218
-0.496616
-0.474791
-0.451581
-0.473406
-0.474791
-0.453954
-0.430744
-0.451581
-0.453954
-0.434105
-0.410895
-0.430744
-0.434105
-0.415243
-0.392033
-0.410895
-0.415243
-0.397369
-0.374159
-0.392033
-0.397369
-0.380483
-0.357273
-0.374159
-0.380483
-0.364584
-0.341374
-0.357273
-0.364584
-0.349673
-0.326463
-0.341374
-0.349673
-0.335749
-0.312539
-0.326463
-0.335749
-0.322813
-0.299604
-0.312539
-0.322813
-0.310865
-0.287655
-0.299604
-0.310865
-0.299905
-0.276695
-0.287655
-0.299905
-0.289932
-0.266722
-0.276695
-0.289932
-0.280947
-0.257737
-0.266722
-0.280947
-0.272949
-0.249739
-0.257737
-0.272949
-0.265939
-0.242729
-0.249739
-0.265939
-0.259917
-0.236707
-0.242729
-0.259917
-0.254882
-0.231673
-0.236707
-0.254882
-0.250836
-0.227626
-0.231673
-0.250836
-0.247776
-0.224566
-0.227626
-0.247776
-0.245705
-0.222495
-0.224566
-0.245705
-0.244621
-0.221411
-0.222495
-0.244621
-0.244524
-0.221315
-0.221411
-0.244524
-0.245416
-0.222206
-0.221315
-0.245416
-0.247295
-0.224085
-0.222206
-0.247295
-0.250161
-0.226952
-0.224085
-0.250161
-0.254016
-0.230806
-0.226952
-0.254016
-0.258858
-0.235648
-0.230806
-0.258858
-0.264687
-0.241477
-0.235648
-0.264687
-0.271505
-0.248295
-0.241477
-0.271505
-0.27931
-0.2561
-0.248295
-0.27931
-0.288102
-0.264892
-0.2561
-0.288102
-0.297882
-0.274673
-0.264892
-0.297882
-0.30865
-0.28544
-0.274673
-0.30865
-0.320406
-0.297196
-0.28544
-0.320406
-0.333149
-0.309939
-0.297196
-0.333149
-0.34688
-0.32367
-0.309939
-0.34688
-0.361598
-0.338389
-0.32367
-0.361598
-0.377305
-0.354095
-0.338389
-0.377305
-0.393998
-0.370789
-0.354095
-0.393998
-0.41168
-0.38847
-0.370789
-0.41168
-0.430349
-0.407139
-0.38847
-0.430349
-0.450006
-0.426796
-0.407139
-0.450006
-0.47065
-0.44744
-0.426796
-0.47065
-0.492282
-0.469072
-0.44744
-0.492282
-0.514902
-0.491692
-0.469072
-0.514902
-0.538509
-0.5153
-0.491692
-0.538509
-0.563105
-0.539895
-0.5153
-0.563105
-0.588687
-0.565477
-0.539895
-0.588687
-0.615258
-0.592048
-0.565477
-0.615258
-0.642816
-0.619606
-0.592048
-0.642816
-0.671361
-0.648151
-0.619606
-0.671361
-0.700895
-0.677685
-0.648151
-0.700895
-0.731416
-0.708206
-0.677685
-0.731416
-0.762924
-0.739714
-0.708206
-0.762924
-0.795421
-0.772211
-0.739714
-0.795421
-0.828905
-0.805695
-0.772211
-0.828905
-0.863376
-0.840166
-0.805695
-0.863376
-0.898835
-0.875625
-0.840166
-0.898835
-0.935282
-0.912072
-0.875625
-0.935282
-0.972717
-0.949507
-0.912072
-0.972717
-1.01114
-0.987929
-0.949507
-1.01114
-1.05055
-1.02734
-0.987929
-1.05055
-1.09095
-1.06774
-1.02734
-1.09095
-1.13233
-1.10912
-1.06774
-1.13233
-1.1747
-1.15149
-1.10912
-1.1747
-1.21806
-1.19486
-1.15149
-1.21806
-1.26241
-1.2392
-1.19486
-1.26241
-1.30775
-1.28454
-1.2392
-1.30775
-1.35407
-1.33086
-1.28454
-1.35407
-1.40138
-1.37817
-1.33086
-1.40138
-1.44968
-1.42647
-1.37817
-1.44968
-1.49897
-1.47576
-1.42647
-1.49897
-1.54924
-1.52603
-1.47576
-1.54924
-1.6005
-1.57729
-1.52603
-1.6005
-1.65275
-1.62954
-1.57729
-1.65275
-1.70599
-1.68278
-1.62954
-1.70599
-1.76022
-1.73701
-1.68278
-1.76022
-1.81543
-1.79222
-1.73701
-1.81543
-1.87163
-1.84842
-1.79222
-1.87163
-1.92882
-1.90561
-1.84842
-1.92882
-1.98699
-1.96378
-1.90561
-1.98699
-2.04615
-2.02294
-1.96378
-2.04615
-2.1063
-2.08309
-2.02294
-2.1063
-2.16744
-2.14423
-2.08309
-2.16744
-2.22957
-2.20636
-2.14423