# vtk DataFile Version 1.0
unstructured Grid
ASCII
DATASET UNSTRUCTURED_GRID
POINTS 23448 float 
0 0	 0.0
0.0222222 0	 0.0
0.0222222 0.0222222	 0.0
0 0.0222222	 0.0
0.0222222 0	 0.0
0.0444444 0	 0.0
0.0444444 0.0222222	 0.0
0.0222222 0.0222222	 0.0
0.0444444 0	 0.0
0.0666667 0	 0.0
0.0666667 0.0222222	 0.0
0.0444444 0.0222222	 0.0
0.0666667 0	 0.0
0.0888889 0	 0.0
0.0888889 0.0222222	 0.0
0.0666667 0.0222222	 0.0
0.0888889 0	 0.0
0.111111 0	 0.0
0.111111 0.0222222	 0.0
0.0888889 0.0222222	 0.0
0.111111 0	 0.0
0.133333 0	 0.0
0.133333 0.0222222	 0.0
0.111111 0.0222222	 0.0
0.133333 0	 0.0
0.155556 0	 0.0
0.155556 0.0222222	 0.0
0.133333 0.0222222	 0.0
0.155556 0	 0.0
0.177778 0	 0.0
0.177778 0.0222222	 0.0
0.155556 0.0222222	 0.0
0.177778 0	 0.0
0.2 0	 0.0
0.2 0.0222222	 0.0
0.177778 0.0222222	 0.0
0.2 0	 0.0
0.222222 0	 0.0
0.222222 0.0222222	 0.0
0.2 0.0222222	 0.0
0.222222 0	 0.0
0.244444 0	 0.0
0.244444 0.0222222	 0.0
0.222222 0.0222222	 0.0
0.244444 0	 0.0
0.266667 0	 0.0
0.266667 0.0222222	 0.0
0.244444 0.0222222	 0.0
0.266667 0	 0.0
0.288889 0	 0.0
0.288889 0.0222222	 0.0
0.266667 0.0222222	 0.0
0.288889 0	 0.0
0.311111 0	 0.0
0.311111 0.0222222	 0.0
0.288889 0.0222222	 0.0
0.311111 0	 0.0
0.333333 0	 0.0
0.333333 0.0222222	 0.0
0.311111 0.0222222	 0.0
0.333333 0	 0.0
0.355556 0	 0.0
0.355556 0.0222222	 0.0
0.333333 0.0222222	 0.0
0.355556 0	 0.0
0.377778 0	 0.0
0.377778 0.0222222	 0.0
0.355556 0.0222222	 0.0
0.377778 0	 0.0
0.4 0	 0.0
0.4 0.0222222	 0.0
0.377778 0.0222222	 0.0
0.4 0	 0.0
0.422222 0	 0.0
0.422222 0.0222222	 0.0
0.4 0.0222222	 0.0
0.422222 0	 0.0
0.444444 0	 0.0
0.444444 0.0222222	 0.0
0.422222 0.0222222	 0.0
0.444444 0	 0.0
0.466667 0	 0.0
0.466667 0.0222222	 0.0
0.444444 0.0222222	 0.0
0.466667 0	 0.0
0.488889 0	 0.0
0.488889 0.0222222	 0.0
0.466667 0.0222222	 0.0
0.488889 0	 0.0
0.511111 0	 0.0
0.511111 0.0222222	 0.0
0.488889 0.0222222	 0.0
0.511111 0	 0.0
0.533333 0	 0.0
0.533333 0.0222222	 0.0
0.511111 0.0222222	 0.0
0.533333 0	 0.0
0.555556 0	 0.0
0.555556 0.0222222	 0.0
0.533333 0.0222222	 0.0
0.555556 0	 0.0
0.577778 0	 0.0
0.577778 0.0222222	 0.0
0.555556 0.0222222	 0.0
0.577778 0	 0.0
0.6 0	 0.0
0.6 0.0222222	 0.0
0.577778 0.0222222	 0.0
0.6 0	 0.0
0.622222 0	 0.0
0.622222 0.0222222	 0.0
0.6 0.0222222	 0.0
0.622222 0	 0.0
0.644444 0	 0.0
0.644444 0.0222222	 0.0
0.622222 0.0222222	 0.0
0.644444 0	 0.0
0.666667 0	 0.0
0.666667 0.0222222	 0.0
0.644444 0.0222222	 0.0
0.666667 0	 0.0
0.688889 0	 0.0
0.688889 0.0222222	 0.0
0.666667 0.0222222	 0.0
0.688889 0	 0.0
0.711111 0	 0.0
0.711111 0.0222222	 0.0
0.688889 0.0222222	 0.0
0.711111 0	 0.0
0.733333 0	 0.0
0.733333 0.0222222	 0.0
0.711111 0.0222222	 0.0
0.733333 0	 0.0
0.755556 0	 0.0
0.755556 0.0222222	 0.0
0.733333 0.0222222	 0.0
0.755556 0	 0.0
0.777778 0	 0.0
0.777778 0.0222222	 0.0
0.755556 0.0222222	 0.0
0.777778 0	 0.0
0.8 0	 0.0
0.8 0.0222222	 0.0
0.777778 0.0222222	 0.0
0.8 0	 0.0
0.822222 0	 0.0
0.822222 0.0222222	 0.0
0.8 0.0222222	 0.0
0.822222 0	 0.0
0.844444 0	 0.0
0.844444 0.0222222	 0.0
0.822222 0.0222222	 0.0
0.844444 0	 0.0
0.866667 0	 0.0
0.866667 0.0222222	 0.0
0.844444 0.0222222	 0.0
0.866667 0	 0.0
0.888889 0	 0.0
0.888889 0.0222222	 0.0
0.866667 0.0222222	 0.0
0.888889 0	 0.0
0.911111 0	 0.0
0.911111 0.0222222	 0.0
0.888889 0.0222222	 0.0
0.911111 0	 0.0
0.933333 0	 0.0
0.933333 0.0222222	 0.0
0.911111 0.0222222	 0.0
0.933333 0	 0.0
0.955556 0	 0.0
0.955556 0.0222222	 0.0
0.933333 0.0222222	 0.0
0.955556 0	 0.0
0.977778 0	 0.0
0.977778 0.0222222	 0.0
0.955556 0.0222222	 0.0
0.977778 0	 0.0
1 0	 0.0
1 0.0222222	 0.0
0.977778 0.0222222	 0.0
1 0	 0.0
1.02222 0	 0.0
1.02222 0.0222222	 0.0
1 0.0222222	 0.0
1.02222 0	 0.0
1.04444 0	 0.0
1.04444 0.0222222	 0.0
1.02222 0.0222222	 0.0
1.04444 0	 0.0
1.06667 0	 0.0
1.06667 0.0222222	 0.0
1.04444 0.0222222	 0.0
1.06667 0	 0.0
1.08889 0	 0.0
1.08889 0.0222222	 0.0
1.06667 0.0222222	 0.0
1.08889 0	 0.0
1.11111 0	 0.0
1.11111 0.0222222	 0.0
1.08889 0.0222222	 0.0
1.11111 0	 0.0
1.13333 0	 0.0
1.13333 0.0222222	 0.0
1.11111 0.0222222	 0.0
1.13333 0	 0.0
1.15556 0	 0.0
1.15556 0.0222222	 0.0
1.13333 0.0222222	 0.0
1.15556 0	 0.0
1.17778 0	 0.0
1.17778 0.0222222	 0.0
1.15556 0.0222222	 0.0
1.17778 0	 0.0
1.2 0	 0.0
1.2 0.0222222	 0.0
1.17778 0.0222222	 0.0
1.2 0	 0.0
1.22222 0	 0.0
1.22222 0.0222222	 0.0
1.2 0.0222222	 0.0
1.22222 0	 0.0
1.24444 0	 0.0
1.24444 0.0222222	 0.0
1.22222 0.0222222	 0.0
1.24444 0	 0.0
1.26667 0	 0.0
1.26667 0.0222222	 0.0
1.24444 0.0222222	 0.0
1.26667 0	 0.0
1.28889 0	 0.0
1.28889 0.0222222	 0.0
1.26667 0.0222222	 0.0
1.28889 0	 0.0
1.31111 0	 0.0
1.31111 0.0222222	 0.0
1.28889 0.0222222	 0.0
1.31111 0	 0.0
1.33333 0	 0.0
1.33333 0.0222222	 0.0
1.31111 0.0222222	 0.0
1.33333 0	 0.0
1.35556 0	 0.0
1.35556 0.0222222	 0.0
1.33333 0.0222222	 0.0
1.35556 0	 0.0
1.37778 0	 0.0
1.37778 0.0222222	 0.0
1.35556 0.0222222	 0.0
1.37778 0	 0.0
1.4 0	 0.0
1.4 0.0222222	 0.0
1.37778 0.0222222	 0.0
1.4 0	 0.0
1.42222 0	 0.0
1.42222 0.0222222	 0.0
1.4 0.0222222	 0.0
1.42222 0	 0.0
1.44444 0	 0.0
1.44444 0.0222222	 0.0
1.42222 0.0222222	 0.0
1.44444 0	 0.0
1.46667 0	 0.0
1.46667 0.0222222	 0.0
1.44444 0.0222222	 0.0
1.46667 0	 0.0
1.48889 0	 0.0
1.48889 0.0222222	 0.0
1.46667 0.0222222	 0.0
1.48889 0	 0.0
1.51111 0	 0.0
1.51111 0.0222222	 0.0
1.48889 0.0222222	 0.0
1.51111 0	 0.0
1.53333 0	 0.0
1.53333 0.0222222	 0.0
1.51111 0.0222222	 0.0
1.53333 0	 0.0
1.55556 0	 0.0
1.55556 0.0222222	 0.0
1.53333 0.0222222	 0.0
1.55556 0	 0.0
1.57778 0	 0.0
1.57778 0.0222222	 0.0
1.55556 0.0222222	 0.0
1.57778 0	 0.0
1.6 0	 0.0
1.6 0.0222222	 0.0
1.57778 0.0222222	 0.0
1.6 0	 0.0
1.62222 0	 0.0
1.62222 0.0222222	 0.0
1.6 0.0222222	 0.0
1.62222 0	 0.0
1.64444 0	 0.0
1.64444 0.0222222	 0.0
1.62222 0.0222222	 0.0
1.64444 0	 0.0
1.66667 0	 0.0
1.66667 0.0222222	 0.0
1.64444 0.0222222	 0.0
1.66667 0	 0.0
1.68889 0	 0.0
1.68889 0.0222222	 0.0
1.66667 0.0222222	 0.0
1.68889 0	 0.0
1.71111 0	 0.0
1.71111 0.0222222	 0.0
1.68889 0.0222222	 0.0
1.71111 0	 0.0
1.73333 0	 0.0
1.73333 0.0222222	 0.0
1.71111 0.0222222	 0.0
1.73333 0	 0.0
1.75556 0	 0.0
1.75556 0.0222222	 0.0
1.73333 0.0222222	 0.0
1.75556 0	 0.0
1.77778 0	 0.0
1.77778 0.0222222	 0.0
1.75556 0.0222222	 0.0
1.77778 0	 0.0
1.8 0	 0.0
1.8 0.0222222	 0.0
1.77778 0.0222222	 0.0
1.8 0	 0.0
1.82222 0	 0.0
1.82222 0.0222222	 0.0
1.8 0.0222222	 0.0
1.82222 0	 0.0
1.84444 0	 0.0
1.84444 0.0222222	 0.0
1.82222 0.0222222	 0.0
1.84444 0	 0.0
1.86667 0	 0.0
1.86667 0.0222222	 0.0
1.84444 0.0222222	 0.0
1.86667 0	 0.0
1.88889 0	 0.0
1.88889 0.0222222	 0.0
1.86667 0.0222222	 0.0
1.88889 0	 0.0
1.91111 0	 0.0
1.91111 0.0222222	 0.0
1.88889 0.0222222	 0.0
1.91111 0	 0.0
1.93333 0	 0.0
1.93333 0.0222222	 0.0
1.91111 0.0222222	 0.0
1.93333 0	 0.0
1.95556 0	 0.0
1.95556 0.0222222	 0.0
1.93333 0.0222222	 0.0
1.95556 0	 0.0
1.97778 0	 0.0
1.97778 0.0222222	 0.0
1.95556 0.0222222	 0.0
1.97778 0	 0.0
2 0	 0.0
2 0.0222222	 0.0
1.97778 0.0222222	 0.0
2 0	 0.0
2.02222 0	 0.0
2.02222 0.0222222	 0.0
2 0.0222222	 0.0
2.02222 0	 0.0
2.04444 0	 0.0
2.04444 0.0222222	 0.0
2.02222 0.0222222	 0.0
2.04444 0	 0.0
2.06667 0	 0.0
2.06667 0.0222222	 0.0
2.04444 0.0222222	 0.0
2.06667 0	 0.0
2.08889 0	 0.0
2.08889 0.0222222	 0.0
2.06667 0.0222222	 0.0
2.08889 0	 0.0
2.11111 0	 0.0
2.11111 0.0222222	 0.0
2.08889 0.0222222	 0.0
2.11111 0	 0.0
2.13333 0	 0.0
2.13333 0.0222222	 0.0
2.11111 0.0222222	 0.0
2.13333 0	 0.0
2.15556 0	 0.0
2.15556 0.0222222	 0.0
2.13333 0.0222222	 0.0
2.15556 0	 0.0
2.17778 0	 0.0
2.17778 0.0222222	 0.0
2.15556 0.0222222	 0.0
2.17778 0	 0.0
2.2 0	 0.0
2.2 0.0222222	 0.0
2.17778 0.0222222	 0.0
2.2 0	 0.0
2.22222 0	 0.0
2.22222 0.0222222	 0.0
2.2 0.0222222	 0.0
2.22222 0	 0.0
2.24444 0	 0.0
2.24444 0.0222222	 0.0
2.22222 0.0222222	 0.0
2.24444 0	 0.0
2.26667 0	 0.0
2.26667 0.0222222	 0.0
2.24444 0.0222222	 0.0
2.26667 0	 0.0
2.28889 0	 0.0
2.28889 0.0222222	 0.0
2.26667 0.0222222	 0.0
2.28889 0	 0.0
2.31111 0	 0.0
2.31111 0.0222222	 0.0
2.28889 0.0222222	 0.0
2.31111 0	 0.0
2.33333 0	 0.0
2.33333 0.0222222	 0.0
2.31111 0.0222222	 0.0
2.33333 0	 0.0
2.35556 0	 0.0
2.35556 0.0222222	 0.0
2.33333 0.0222222	 0.0
2.35556 0	 0.0
2.37778 0	 0.0
2.37778 0.0222222	 0.0
2.35556 0.0222222	 0.0
2.37778 0	 0.0
2.4 0	 0.0
2.4 0.0222222	 0.0
2.37778 0.0222222	 0.0
2.4 0	 0.0
2.42222 0	 0.0
2.42222 0.0222222	 0.0
2.4 0.0222222	 0.0
2.42222 0	 0.0
2.44444 0	 0.0
2.44444 0.0222222	 0.0
2.42222 0.0222222	 0.0
2.44444 0	 0.0
2.46667 0	 0.0
2.46667 0.0222222	 0.0
2.44444 0.0222222	 0.0
2.46667 0	 0.0
2.48889 0	 0.0
2.48889 0.0222222	 0.0
2.46667 0.0222222	 0.0
2.48889 0	 0.0
2.51111 0	 0.0
2.51111 0.0222222	 0.0
2.48889 0.0222222	 0.0
2.51111 0	 0.0
2.53333 0	 0.0
2.53333 0.0222222	 0.0
2.51111 0.0222222	 0.0
2.53333 0	 0.0
2.55556 0	 0.0
2.55556 0.0222222	 0.0
2.53333 0.0222222	 0.0
2.55556 0	 0.0
2.57778 0	 0.0
2.57778 0.0222222	 0.0
2.55556 0.0222222	 0.0
2.57778 0	 0.0
2.6 0	 0.0
2.6 0.0222222	 0.0
2.57778 0.0222222	 0.0
2.6 0	 0.0
2.62222 0	 0.0
2.62222 0.0222222	 0.0
2.6 0.0222222	 0.0
2.62222 0	 0.0
2.64444 0	 0.0
2.64444 0.0222222	 0.0
2.62222 0.0222222	 0.0
2.64444 0	 0.0
2.66667 0	 0.0
2.66667 0.0222222	 0.0
2.64444 0.0222222	 0.0
2.66667 0	 0.0
2.68889 0	 0.0
2.68889 0.0222222	 0.0
2.66667 0.0222222	 0.0
2.68889 0	 0.0
2.71111 0	 0.0
2.71111 0.0222222	 0.0
2.68889 0.0222222	 0.0
2.71111 0	 0.0
2.73333 0	 0.0
2.73333 0.0222222	 0.0
2.71111 0.0222222	 0.0
2.73333 0	 0.0
2.75556 0	 0.0
2.75556 0.0222222	 0.0
2.73333 0.0222222	 0.0
2.75556 0	 0.0
2.77778 0	 0.0
2.77778 0.0222222	 0.0
2.75556 0.0222222	 0.0
2.77778 0	 0.0
2.8 0	 0.0
2.8 0.0222222	 0.0
2.77778 0.0222222	 0.0
2.8 0	 0.0
2.82222 0	 0.0
2.82222 0.0222222	 0.0
2.8 0.0222222	 0.0
2.82222 0	 0.0
2.84444 0	 0.0
2.84444 0.0222222	 0.0
2.82222 0.0222222	 0.0
2.84444 0	 0.0
2.86667 0	 0.0
2.86667 0.0222222	 0.0
2.84444 0.0222222	 0.0
2.86667 0	 0.0
2.88889 0	 0.0
2.88889 0.0222222	 0.0
2.86667 0.0222222	 0.0
2.88889 0	 0.0
2.91111 0	 0.0
2.91111 0.0222222	 0.0
2.88889 0.0222222	 0.0
2.91111 0	 0.0
[...]
POINT_DATA 23448
SCALARS levelset_first float
LOOKUP_TABLE default
-3.90334
-3.81971
-3.79353
-3.87717
-3.81971
-3.73706
-3.71088
-3.79353
-3.73706
-3.65539
-3.62922
-3.71088
-3.65539
-3.57472
-3.54854
-3.62922
-3.57472
-3.49503
-3.46886
-3.54854
-3.49503
-3.41633
-3.39016
-3.46886
-3.41633
-3.33862
-3.31244
-3.39016
-3.33862
-3.26189
-3.23572
-3.31244
-3.26189
-3.18616
-3.15998
-3.23572
-3.18616
-3.11141
-3.08523
-3.15998
-3.11141
-3.03764
-3.01147
-3.08523
-3.03764
-2.96487
-2.9387
-3.01147
-2.96487
-2.89308
-2.86691
-2.9387
-2.89308
-2.82229
-2.79611
-2.86691
-2.82229
-2.75247
-2.7263
-2.79611
-2.75247
-2.68365
-2.65748
-2.7263
-2.68365
-2.61581
-2.58964
-2.65748
-2.61581
-2.54897
-2.52279
-2.58964
-2.54897
-2.48311
-2.45693
-2.52279
-2.48311
-2.41823
-2.39206
-2.45693
-2.41823
-2.35435
-2.32818
-2.39206
-2.35435
-2.29145
-2.26528
-2.32818
-2.29145
-2.22954
-2.20337
-2.26528
-2.22954
-2.16862
-2.14245
-2.20337
-2.16862
-2.10868
-2.08251
-2.14245
-2.10868
-2.04974
-2.02356
-2.08251
-2.04974
-1.99178
-1.9656
-2.02356
-1.99178
-1.93481
-1.90863
-1.9656
-1.93481
-1.87882
-1.85265
-1.90863
-1.87882
-1.82383
-1.79765
-1.85265
-1.82383
-1.76982
-1.74364
-1.79765
-1.76982
-1.7168
-1.69062
-1.74364
-1.7168
-1.66476
-1.63859
-1.69062
-1.66476
-1.61372
-1.58754
-1.63859
-1.61372
-1.56366
-1.53749
-1.58754
-1.56366
-1.51459
-1.48842
-1.53749
-1.51459
-1.46651
-1.44033
-1.48842
-1.46651
-1.41941
-1.39324
-1.44033
-1.41941
-1.3733
-1.34713
-1.39324
-1.3733
-1.32818
-1.30201
-1.34713
-1.32818
-1.28405
-1.25788
-1.30201
-1.28405
-1.24091
-1.21473
-1.25788
-1.24091
-1.19875
-1.17258
-1.21473
-1.19875
-1.15758
-1.13141
-1.17258
-1.15758
-1.1174
-1.09123
-1.13141
-1.1174
-1.07821
-1.05203
-1.09123
-1.07821
-1.04
-1.01383
-1.05203
-1.04
-1.00278
-0.976608
-1.01383
-1.00278
-0.96655
-0.940377
-0.976608
-0.96655
-0.931307
-0.905134
-0.940377
-0.931307
-0.897052
-0.870879
-0.905134
-0.897052
-0.863784
-0.837611
-0.870879
-0.863784
-0.831503
-0.805331
-0.837611
-0.831503
-0.800211
-0.774038
-0.805331
-0.800211
-0.769906
-0.743733
-0.774038
-0.769906
-0.740589
-0.714416
-0.743733
-0.740589
-0.712259
-0.686086
-0.714416
-0.712259
-0.684917
-0.658744
-0.686086
-0.684917
-0.658563
-0.63239
-0.658744
-0.658563
-0.633196
-0.607023
-0.63239
-0.633196
-0.608817
-0.582644
-0.607023
-0.608817
-0.585426
-0.559253
-0.582644
-0.585426
-0.563022
-0.536849
-0.559253
-0.563022
-0.541606
-0.515433
-0.536849
-0.541606
-0.521177
-0.495005
-0.515433
-0.521177
-0.501737
-0.475564
-0.495005
-0.501737
-0.483284
-0.457111
-0.475564
-0.483284
-0.465818
-0.439645
-0.457111
-0.465818
-0.44934
-0.423167
-0.439645
-0.44934
-0.43385
-0.407677
-0.423167
-0.43385
-0.419348
-0.393175
-0.407677
-0.419348
-0.405833
-0.37966
-0.393175
-0.405833
-0.393306
-0.367133
-0.37966
-0.393306
-0.381766
-0.355593
-0.367133
-0.381766
-0.371214
-0.345041
-0.355593
-0.371214
-0.36165
-0.335477
-0.345041
-0.36165
-0.353074
-0.326901
-0.335477
-0.353074
-0.345485
-0.319312
-0.326901
-0.345485
-0.338883
-0.312711
-0.319312
-0.338883
-0.33327
-0.307097
-0.312711
-0.33327
-0.328644
-0.302471
-0.307097
-0.328644
-0.325006
-0.298833
-0.302471
-0.325006
-0.322355
-0.296182
-0.298833
-0.322355
-0.320692
-0.294519
-0.296182
-0.320692
-0.320017
-0.293844
-0.294519
-0.320017
-0.320329
-0.294156
-0.293844
-0.320329
-0.321629
-0.295456
-0.294156
-0.321629
-0.323917
-0.297744
-0.295456
-0.323917
-0.327192
-0.301019
-0.297744
-0.327192
-0.331455
-0.305282
-0.301019
-0.331455
-0.336706
-0.310533
-0.305282
-0.336706
-0.342944
-0.316771
-0.310533
-0.342944
-0.35017
-0.323997
-0.316771
-0.35017
-0.358383
-0.33221
-0.323997
-0.358383
-0.367584
-0.341412
-0.33221
-0.367584
-0.377773
-0.351601
-0.341412
-0.377773
-0.38895
-0.362777
-0.351601
-0.38895
-0.401114
-0.374941
-0.362777
-0.401114
-0.414266
-0.388093
-0.374941
-0.414266
-0.428405
-0.402233
-0.388093
-0.428405
-0.443533
-0.41736
-0.402233
-0.443533
-0.459647
-0.433475
-0.41736
-0.459647
-0.47675
-0.450577
-0.433475
-0.47675
-0.49484
-0.468667
-0.450577
-0.49484
-0.513918
-0.487745
-0.468667
-0.513918
-0.533983
-0.50781
-0.487745
-0.533983
-0.555036
-0.528863
-0.50781
-0.555036
-0.577077
-0.550904
-0.528863
-0.577077
-0.600105
-0.573933
-0.550904
-0.600105
-0.624121
-0.597949
-0.573933
-0.624121
-0.649125
-0.622952
-0.597949
-0.649125
-0.675116
-0.648944
-0.622952
-0.675116
-0.702095
-0.675923
-0.648944
-0.702095
-0.730062
-0.703889
-0.675923
-0.730062
-0.759016
-0.732844
-0.703889
-0.759016
-0.788958
-0.762786
-0.732844
-0.788958
-0.819888
-0.793715
-0.762786
-0.819888
-0.851805
-0.825632
-0.793715
-0.851805
-0.88471
-0.858537
-0.825632
-0.88471
-0.918603
-0.89243
-0.858537
-0.918603
-0.953483
-0.92731
-0.89243
-0.953483
-0.989351
-0.963178
-0.92731
-0.989351
-1.02621
-1.00003
-0.963178
-1.02621
-1.06405
-1.03788
-1.00003
-1.06405
-1.10288
-1.07671
-1.03788
-1.10288
-1.1427
-1.11653
-1.07671
-1.1427
-1.18351
-1.15733
-1.11653
-1.18351
-1.2253
-1.19913
-1.15733
-1.2253
-1.26808
-1.24191
-1.19913
-1.26808
-1.31185
-1.28568
-1.24191
-1.31185
-1.35661
-1.33043
-1.28568
-1.35661
-1.40235
-1.37618
-1.33043
-1.40235
-1.44908
-1.42291
-1.37618
-1.44908
-1.4968
-1.47063
-1.42291
-1.4968
-1.54551
-1.51934
-1.47063
-3.87717
-3.79353
-3.76835
-3.85199
-3.79353
-3.71088
-3.6857
-3.76835
-3.71088
-3.62922
-3.60403
-3.6857
-3.62922
-3.54854
-3.52336
-3.60403
-3.54854
-3.46886
-3.44367
-3.52336
-3.46886
-3.39016
-3.36497
-3.44367
-3.39016
-3.31244
-3.28726
-3.36497
-3.31244
-3.23572
-3.21053
-3.28726
-3.23572
-3.15998
-3.1348
-3.21053
-3.15998
-3.08523
-3.06005
-3.1348
-3.08523
-3.01147
-2.98629
-3.06005
-3.01147
-2.9387
-2.91351
-2.98629
-2.9387
-2.86691
-2.84173
-2.91351
-2.86691
-2.79611
-2.77093
-2.84173
-2.79611
-2.7263
-2.70112
-2.77093
-2.7263
-2.65748
-2.63229
-2.70112
-2.65748
-2.58964
-2.56446
-2.63229
-2.58964
-2.52279
-2.49761
-2.56446
-2.52279
-2.45693
-2.43175
-2.49761
-2.45693
-2.39206
-2.36688
-2.43175
-2.39206
-2.32818
-2.30299
-2.36688
-2.32818
-2.26528
-2.24009
-2.30299
-2.26528
-2.20337
-2.17818
-2.24009
-2.20337
-2.14245
-2.11726
-2.17818
-2.14245
-2.08251
-2.05733
-2.11726
-2.08251
-2.02356
-1.99838
-2.05733
-2.02356
-1.9656
-1.94042
-1.99838
-1.9656
-1.90863
-1.88345
-1.94042
-1.90863
-1.85265
-1.82746
-1.88345
-1.85265
-1.79765
-1.77247
-1.82746
-1.79765
-1.74364
-1.71846
-1.77247
-1.74364
-1.69062
-1.66544
-1.71846
-1.69062
-1.63859
-1.6134
-1.66544
-1.63859
-1.58754
-1.56236
-1.6134
-1.58754
-1.53749
-1.5123
-1.56236
-1.53749
-1.48842
-1.46323
-1.5123
-1.48842
-1.44033
-1.41515
-1.46323
-1.44033
-1.39324
-1.36805
-1.41515
-1.39324
-1.34713
-1.32195
-1.36805
-1.34713
-1.30201
-1.27683
-1.32195
-1.30201
-1.25788
-1.23269
-1.27683
-1.25788
-1.21473
-1.18955
-1.23269
-1.21473
-1.17258
-1.14739
-1.18955
-1.17258
-1.13141
-1.10622
-1.14739
-1.13141
-1.09123
-1.06604
-1.10622
-1.09123
-1.05203
-1.02685
-1.06604
-1.05203
-1.01383
-0.988642
-1.02685
-1.01383
-0.976608
-0.951423
-0.988642
-0.976608
-0.940377
-0.915192
-0.951423
-0.940377
-0.905134
-0.879949
-0.915192
-0.905134
-0.870879
-0.845694
-0.879949
-0.870879
-0.837611
-0.812426
-0.845694
-0.837611
-0.805331
-0.780145
-0.812426
-0.805331
-0.774038
-0.748853
-0.780145
-0.774038
-0.743733
-0.718548
-0.748853
-0.743733
-0.714416
-0.689231
-0.718548
-0.714416
-0.686086
-0.660901
-0.689231
-0.686086
-0.658744
-0.633559
-0.660901
-0.658744
-0.63239
-0.607205
-0.633559
-0.63239
-0.607023
-0.581838
-0.607205
-0.607023
-0.582644
-0.557459
-0.581838
-0.582644
-0.559253
-0.534068
-0.557459
-0.559253
-0.536849
-0.511664
-0.534068
-0.536849
-0.515433
-0.490248
-0.511664
-0.515433
-0.495005
-0.469819
-0.490248
-0.495005
-0.475564
-0.450379
-0.469819
-0.475564
-0.457111
-0.431925
-0.450379
-0.457111
-0.439645
-0.41446
-0.431925
-0.439645
-0.423167
-0.397982
-0.41446
-0.423167
-0.407677
-0.382492
-0.397982
-0.407677
-0.393175
-0.36799
-0.382492
-0.393175
-0.37966
-0.354475
-0.36799
-0.37966
-0.367133
-0.341948
-0.354475
-0.367133
-0.355593
-0.330408
-0.341948
-0.355593
-0.345041
-0.319856
-0.330408
-0.345041
-0.335477
-0.310292
-0.319856
-0.335477
-0.326901
-0.301716
-0.310292
-0.326901
-0.319312
-0.294127
-0.301716
-0.319312
-0.312711
-0.287525
-0.294127
-0.312711
-0.307097
-0.281912
-0.287525
-0.307097
-0.302471
-0.277286
-0.281912
-0.302471
-0.298833
-0.273648
-0.277286
-0.298833
-0.296182
-0.270997
-0.273648
-0.296182
-0.294519
-0.269334
-0.270997
-0.294519
-0.293844
-0.268659
-0.269334
-0.293844
-0.294156
-0.268971
-0.268659
-0.294156
-0.295456
-0.270271
-0.268971
-0.295456
-0.297744
-0.272559
-0.270271
-0.297744
-0.301019
-0.275834
-0.272559
-0.301019
-0.305282
-0.280097
-0.275834
-0.305282
-0.310533
-0.285347
-0.280097
-0.310533
-0.316771
-0.291586
-0.285347
-0.316771
-0.323997
-0.298812
-0.291586
-0.323997
-0.33221
-0.307025
-0.298812
-0.33221
-0.341412
-0.316226
-0.307025
-0.341412
-0.351601
-0.326415
-0.316226
-0.351601
-0.362777
-0.337592
-0.326415
-0.362777
-0.374941
-0.349756
-0.337592
-0.374941
-0.388093
-0.362908
-0.349756
-0.388093
-0.402233
-0.377047
-0.362908
-0.402233
-0.41736
-0.392175
-0.377047
-0.41736
-0.433475
-0.408289
-0.392175
-0.433475
-0.450577
-0.425392
-0.408289
-0.450577
-0.468667
-0.443482
-0.425392
-0.468667
-0.487745
-0.46256
-0.443482
-0.487745
-0.50781
-0.482625
-0.46256
-0.50781
-0.528863
-0.503678
-0.482625
-0.528863
-0.550904
-0.525719
-0.503678
-0.550904
-0.573933
-0.548747
-0.525719
-0.573933
-0.597949
-0.572763
-0.548747
-0.597949
-0.622952
-0.597767
-0.572763
-0.622952
-0.648944
-0.623758
-0.597767
-0.648944
-0.675923
-0.650737
-0.623758
-0.675923
-0.703889
-0.678704
-0.650737
-0.703889
-0.732844
-0.707658
-0.678704
-0.732844
-0.762786
-0.7376
-0.707658
-0.762786
-0.793715
-0.76853
-0.7376
-0.793715
-0.825632
-0.800447
-0.76853
-0.825632
-0.858537
-0.833352
-0.800447
-0.858537
-0.89243
-0.867245
-0.833352
-0.89243
-0.92731
-0.902125
-0.867245
-0.92731
-0.963178
-0.937993
-0.902125
-0.963178
-1.00003
-0.974848
-0.937993
-1.00003
-1.03788
-1.01269
-0.974848
-1.03788
-1.07671
-1.05152
-1.01269
-1.07671
-1.11653
-1.09134
-1.05152
-1.11653
-1.15733
-1.13215
-1.09134
-1.15733
-1.19913
-1.17394
-1.13215
-1.19913
-1.24191
-1.21672
-1.17394
-1.24191
-1.28568
-1.26049
-1.21672
-1.28568
-1.33043
-1.30525
-1.26049
-1.33043
-1.37618
-1.35099
-1.30525
-1.37618
-1.42291
-1.39772
-1.35099
-1.42291
-1.47063
-1.44544
-1.39772
-1.47063
-1.51934
-1.49415
-1.44544
-3.85199
-3.76835
-3.74415
-3.82779
-3.76835
-3.6857
-3.6615
-3.74415
-3.6857
-3.60403
-3.57984
-3.6615
-3.60403
-3.52336
-3.49916
-3.57984
-3.52336
-3.44367
-3.41947
-3.49916
-3.44367
-3.36497
-3.34077
-3.41947
-3.36497
-3.28726
-3.26306
-3.34077
-3.28726
-3.21053
-3.18634
-3.26306
-3.21053
-3.1348
-3.1106
-3.18634
-3.1348
-3.06005
-3.03585
-3.1106
-3.06005
-2.98629
-2.96209
-3.03585
-2.98629
-2.91351
-2.88931
-2.96209
-2.91351
-2.84173
-2.81753
-2.88931
-2.84173
-2.77093
-2.74673
-2.81753
-2.77093
-2.70112
-2.67692
-2.74673
-2.70112
-2.63229
-2.6081
-2.67692
-2.63229
-2.56446
-2.54026
-2.6081
-2.56446
-2.49761
-2.47341
-2.54026
-2.49761
-2.43175
-2.40755
-2.47341
-2.43175
-2.36688
-2.34268
-2.40755
-2.36688
-2.30299
-2.27879
-2.34268
-2.30299
-2.24009
-2.2159
-2.27879
-2.24009
-2.17818
-2.15399
-2.2159
-2.17818
-2.11726
-2.09306
-2.15399
-2.11726
-2.05733
-2.03313
-2.09306
-2.05733
-1.99838
-1.97418
-2.03313
-1.99838
-1.94042
-1.91622
-1.97418
-1.94042
-1.88345
-1.85925
-1.91622
-1.88345
-1.82746
-1.80327
-1.85925
-1.82746
-1.77247
-1.74827
-1.80327
-1.77247
-1.71846
-1.69426
-1.74827
-1.71846
-1.66544
-1.64124
-1.69426
-1.66544
-1.6134
-1.58921
-1.64124
-1.6134
-1.56236
-1.53816
-1.58921
-1.56236
-1.5123
-1.4881
-1.53816
-1.5123
-1.46323
-1.43903
-1.4881
-1.46323
-1.41515
-1.39095
-1.43903
-1.41515
-1.36805
-1.34386
-1.39095
-1.36805
-1.32195
-1.29775
-1.34386
-1.32195
-1.27683
-1.25263
-1.29775
-1.27683
-1.23269
-1.2085
-1.25263
-1.23269
-1.18955
-1.16535
-1.2085
-1.18955
-1.14739
-1.12319
-1.16535
-1.14739
-1.10622
-1.08203
-1.12319
-1.10622
-1.06604
-1.04184
-1.08203
-1.06604
-1.02685
-1.00265
-1.04184
-1.02685
-0.988642
-0.964444
-1.00265
-0.988642
-0.951423
-0.927226
-0.964444
-0.951423
-0.915192
-0.890995
-0.927226
-0.915192
-0.879949
-0.855752
-0.890995
-0.879949
-0.845694
-0.821496
-0.855752
-0.845694
-0.812426
-0.788228
-0.821496
-0.812426
-0.780145
-0.755948
-0.788228
-0.780145
-0.748853
-0.724655
-0.755948
-0.748853
-0.718548
-0.69435
-0.724655
-0.718548
-0.689231
-0.665033
-0.69435
-0.689231
-0.660901
-0.636703
-0.665033
-0.660901
-0.633559
-0.609361
-0.636703
-0.633559
-0.607205
-0.583007
-0.609361
-0.607205
-0.581838
-0.55764
-0.583007
-0.581838
-0.557459
-0.533261
-0.55764
-0.557459
-0.534068
-0.50987
-0.533261
-0.534068
-0.511664
-0.487466
-0.50987
-0.511664
-0.490248
-0.46605
-0.487466
-0.490248
-0.469819
-0.445622
-0.46605
-0.469819
-0.450379
-0.426181
-0.445622
-0.450379
-0.431925
-0.407728
-0.426181
-0.431925
-0.41446
-0.390263
-0.407728
-0.41446
-0.397982
-0.373785
-0.390263
-0.397982
-0.382492
-0.358295
-0.373785
-0.382492
-0.36799
-0.343792
-0.358295
-0.36799
-0.354475
-0.330277
-0.343792
-0.354475
-0.341948
-0.31775
-0.330277
-0.341948
-0.330408
-0.306211
-0.31775
-0.330408
-0.319856
-0.295659
-0.306211
-0.319856
-0.310292
-0.286095
-0.295659
-0.310292
-0.301716
-0.277518
-0.286095
-0.301716
-0.294127
-0.269929
-0.277518
-0.294127
-0.287525
-0.263328
-0.269929
-0.287525
-0.281912
-0.257714
-0.263328
-0.281912
-0.277286
-0.253088
-0.257714
-0.277286
-0.273648
-0.24945
-0.253088
-0.273648
-0.270997
-0.246799
-0.24945
-0.270997
-0.269334
-0.245136
-0.246799
-0.269334
-0.268659
-0.244461
-0.245136
-0.268659
-0.268971
-0.244773
-0.244461
-0.268971
-0.270271
-0.246073
-0.244773
-0.270271
-0.272559
-0.248361
-0.246073
-0.272559
-0.275834
-0.251636
-0.248361
-0.275834
-0.280097
-0.255899
-0.251636
-0.280097
-0.285347
-0.26115
-0.255899
-0.285347
-0.291586
-0.267388
-0.26115
-0.291586
-0.298812
-0.274614
-0.267388
-0.298812
-0.307025
-0.282828
-0.274614
-0.307025
-0.316226
-0.292029
-0.282828
-0.316226
-0.326415
-0.302218
-0.292029
-0.326415
-0.337592
-0.313394
-0.302218
-0.337592
-0.349756
-0.325559
-0.313394
-0.349756
-0.362908
-0.33871
-0.325559
-0.362908
-0.377047
-0.35285
-0.33871
-0.377047
-0.392175
-0.367977
-0.35285
-0.392175
-0.408289
-0.384092
-0.367977
-0.408289
-0.425392
-0.401194
-0.384092
-0.425392
-0.443482
-0.419284
-0.401194
-0.443482
-0.46256
-0.438362
-0.419284
-0.46256
-0.482625
-0.458428
-0.438362
-0.482625
-0.503678
-0.479481
-0.458428
-0.503678
-0.525719
-0.501521
-0.479481
-0.525719
-0.548747
-0.52455
-0.501521
-0.548747
-0.572763
-0.548566
-0.52455
-0.572763
-0.597767
-0.57357
-0.548566
-0.597767
-0.623758
-0.599561
-0.57357
-0.623758
-0.650737
-0.62654
-0.599561
-0.650737
-0.678704
-0.654507
-0.62654
-0.678704
-0.707658
-0.683461
-0.654507
-0.707658
-0.7376
-0.713403
-0.683461
-0.7376
-0.76853
-0.744332
-0.713403
-0.76853
-0.800447
-0.77625
-0.744332
-0.800447
-0.833352
-0.809155
-0.77625
-0.833352
-0.867245
-0.843047
-0.809155
-0.867245
-0.902125
-0.877927
-0.843047
-0.902125
-0.937993
-0.913795
-0.877927
-0.937993
-0.974848
-0.950651
-0.913795
-0.974848
-1.01269
-0.988494
-0.950651
-1.01269
-1.05152
-1.02732
-0.988494
-1.05152
-1.09134
-1.06714
-1.02732
-1.09134
-1.13215
-1.10795
-1.06714
-1.13215
-1.17394
-1.14974
-1.10795
-1.17394
-1.21672
-1.19252
-1.14974
-1.21672
-1.26049
-1.23629
-1.19252
-1.26049
-1.30525
-1.28105
-1.23629
-1.30525
-1.35099
-1.3268
-1.28105
-1.35099
-1.39772
-1.37353
-1.3268
-1.39772
-1.44544
-1.42125
-1.37353
-1.44544
-1.49415
-1.46995
-1.42125
-3.82779
-3.74415
-3.72094
-3.80458
-3.74415
-3.6615
-3.63829
-3.72094
-3.6615
-3.57984
-3.55663
-3.63829
-3.57984
-3.49916
-3.47595
-3.55663
-3.49916
-3.41947
-3.39626
-3.47595
-3.41947
-3.34077
-3.31756
-3.39626
-3.34077
-3.26306
-3.23985
-3.31756
-3.26306
-3.18634
-3.16313
-3.23985
-3.18634
-3.1106
-3.08739
-3.16313
-3.1106
-3.03585
-3.01264
-3.08739
-3.03585
-2.96209
-2.93888
-3.01264
-2.96209
-2.88931
-2.8661
-2.93888
-2.88931
-2.81753
-2.79432
-2.8661
-2.81753
-2.74673
-2.72352
-2.79432
-2.74673
-2.67692
-2.65371
-2.72352
-2.67692
-2.6081
-2.58489
-2.65371
-2.6081
-2.54026
-2.51705
-2.58489
-2.54026
-2.47341
-2.4502
-2.51705
-2.47341
-2.40755
-2.38434
-2.4502
-2.40755
-2.34268
-2.31947
-2.38434
-2.34268
-2.27879
-2.25558
-2.31947
-2.27879
-2.2159
-2.19269
-2.25558
-2.2159
-2.15399
-2.13078
-2.19269
-2.15399
-2.09306
-2.06985
-2.13078
-2.09306
-2.03313
-2.00992
-2.06985
-2.03313
-1.97418
-1.95097
-2.00992
-1.97418
-1.91622
-1.89301
-1.95097
-1.91622
-1.85925
-1.83604
-1.89301
-1.85925
-1.80327
-1.78006
-1.83604
-1.80327
-1.74827
-1.72506
-1.78006
-1.74827
-1.69426
-1.67105
-1.72506
-1.69426
-1.64124
-1.61803
-1.67105
-1.64124
-1.58921
-1.566
-1.61803
-1.58921
-1.53816
-1.51495
-1.566
-1.53816
-1.4881
-1.46489
-1.51495
-1.4881
-1.43903
-1.41582
-1.46489
-1.43903
-1.39095
-1.36774
-1.41582
-1.39095
-1.34386
-1.32065
-1.36774
-1.34386
-1.29775
-1.27454
-1.32065
-1.29775
-1.25263
-1.22942
-1.27454
-1.25263
-1.2085
-1.18529
-1.22942
-1.2085
-1.16535
-1.14214
-1.18529
-1.16535
-1.12319
-1.09998
-1.14214
-1.12319
-1.08203
-1.05882
-1.09998
-1.08203
-1.04184
-1.01863
-1.05882
-1.04184
-1.00265
-0.97944
-1.01863
-1.00265
-0.964444
-0.941234
-0.97944
-0.964444
-0.927226
-0.904016
-0.941234
-0.927226
-0.890995
-0.867785
-0.904016
-0.890995
-0.855752
-0.832542
-0.867785
-0.855752
-0.821496
-0.798286
-0.832542
-0.821496
-0.788228
-0.765018
-0.798286
-0.788228
-0.755948
-0.732738
-0.765018
-0.755948
-0.724655
-0.701445
-0.732738
-0.724655
-0.69435
-0.67114
-0.701445
-0.69435
-0.665033
-0.641823
-0.67114
-0.665033
-0.636703
-0.613493
-0.641823
-0.636703
-0.609361
-0.586151
-0.613493
-0.609361
-0.583007
-0.559797
-0.586151
-0.583007
-0.55764
-0.53443
-0.559797
-0.55764
-0.533261
-0.510051
-0.53443
-0.533261
-0.50987
-0.48666
-0.510051
-0.50987
-0.487466
-0.464256
-0.48666
-0.487466
-0.46605
-0.44284
-0.464256
-0.46605
-0.445622
-0.422412
-0.44284
-0.445622
-0.426181
-0.402971
-0.422412
-0.426181
-0.407728
-0.384518
-0.402971
-0.407728
-0.390263
-0.367053
-0.384518
-0.390263
-0.373785
-0.350575
-0.367053
-0.373785
-0.358295
-0.335085
-0.350575
-0.358295
-0.343792
-0.320582
-0.335085
-0.343792
-0.330277
-0.307067
-0.320582
-0.330277
-0.31775
-0.29454
-0.307067
-0.31775
-0.306211
-0.283001
-0.29454
-0.306211
-0.295659
-0.272449
-0.283001
-0.295659
-0.286095
-0.262885
-0.272449
-0.286095
-0.277518
-0.254308
-0.262885
-0.277518
-0.269929
-0.246719
-0.254308
-0.269929
-0.263328
-0.240118
-0.246719
-0.263328
-0.257714
-0.234504
-0.240118
-0.257714
-0.253088
-0.229878
-0.234504
-0.253088
-0.24945
-0.22624
-0.229878
-0.24945
-0.246799
-0.22359
-0.22624
-0.246799
-0.245136
-0.221927
-0.22359
-0.245136
-0.244461
-0.221251
-0.221927
-0.244461
-0.244773
-0.221564
-0.221251
-0.244773
-0.246073
-0.222864
-0.221564
-0.246073
-0.248361
-0.225151
-0.222864
-0.248361
-0.251636
-0.228427
-0.225151
-0.251636
-0.255899
-0.232689
-0.228427
-0.255899
-0.26115
-0.23794
-0.232689
-0.26115
-0.267388
-0.244178
-0.23794
-0.267388
-0.274614
-0.251404
-0.244178
-0.274614
-0.282828
-0.259618
-0.251404
-0.282828
-0.292029
-0.268819
-0.259618
-0.292029
-0.302218
-0.279008
-0.268819
-0.302218
-0.313394
-0.290184
-0.279008
-0.313394
-0.325559
-0.302349
-0.290184
-0.325559
-0.33871
-0.3155
-0.302349
-0.33871
-0.35285
-0.32964
-0.3155
-0.35285
-0.367977
-0.344767
-0.32964
-0.367977
-0.384092
-0.360882
-0.344767
-0.384092
-0.401194
-0.377984
-0.360882
-0.401194
-0.419284
-0.396075
-0.377984
-0.419284
-0.438362
-0.415152
-0.396075
-0.438362
-0.458428
-0.435218
-0.415152
-0.458428
-0.479481
-0.456271
-0.435218
-0.479481
-0.501521
-0.478312
-0.456271
-0.501521
-0.52455
-0.50134
-0.478312
-0.52455
-0.548566
-0.525356
-0.50134
-0.548566
-0.57357
-0.55036
-0.525356
-0.57357
-0.599561
-0.576351
-0.55036
-0.599561
-0.62654
-0.60333
-0.576351
-0.62654
-0.654507
-0.631297
-0.60333
-0.654507
-0.683461
-0.660251
-0.631297
-0.683461
-0.713403
-0.690193
-0.660251
-0.713403
-0.744332
-0.721123
-0.690193
-0.744332
-0.77625
-0.75304
-0.721123
-0.77625
-0.809155
-0.785945
-0.75304
-0.809155
-0.843047
-0.819837
-0.785945
-0.843047
-0.877927
-0.854718
-0.819837
-0.877927
-0.913795