# vtk DataFile Version 1.0
unstructured Grid
ASCII
DATASET UNSTRUCTURED_GRID
POINTS 23424 float 
0 0	 0.0
0.0222222 0	 0.0
0.0222222 0.0222222	 0.0
0 0.0222222	 0.0
0.0222222 0	 0.0
0.0444444 0	 0.0
0.0444444 0.0222222	 0.0
0.0222222 0.0222222	 0.0
0.0444444 0	 0.0
0.0666667 0	 0.0
0.0666667 0.0222222	 0.0
0.0444444 0.0222222	 0.0
0.0666667 0	 0.0
0.0888889 0	 0.0
0.0888889 0.0222222	 0.0
0.0666667 0.0222222	 0.0
0.0888889 0	 0.0
0.111111 0	 0.0
0.111111 0.0222222	 0.0
0.0888889 0.0222222	 0.0
0.111111 0	 0.0
0.133333 0	 0.0
0.133333 0.0222222	 0.0
0.111111 0.0222222	 0.0
0.133333 0	 0.0
0.155556 0	 0.0
0.155556 0.0222222	 0.0
0.133333 0.0222222	 0.0
0.155556 0	 0.0
0.177778 0	 0.0
0.177778 0.0222222	 0.0
0.155556 0.0222222	 0.0
0.177778 0	 0.0
0.2 0	 0.0
0.2 0.0222222	 0.0
0.177778 0.0222222	 0.0
0.2 0	 0.0
0.222222 0	 0.0
0.222222 0.0222222	 0.0
0.2 0.0222222	 0.0
0.222222 0	 0.0
0.244444 0	 0.0
0.244444 0.0222222	 0.0
0.222222 0.0222222	 0.0
0.244444 0	 0.0
0.266667 0	 0.0
0.266667 0.0222222	 0.0
0.244444 0.0222222	 0.0
0.266667 0	 0.0
0.288889 0	 0.0
0.288889 0.0222222	 0.0
0.266667 0.0222222	 0.0
0.288889 0	 0.0
0.311111 0	 0.0
0.311111 0.0222222	 0.0
0.288889 0.0222222	 0.0
0.311111 0	 0.0
0.333333 0	 0.0
0.333333 0.0222222	 0.0
0.311111 0.0222222	 0.0
0.333333 0	 0.0
0.355556 0	 0.0
0.355556 0.0222222	 0.0
0.333333 0.0222222	 0.0
0.355556 0	 0.0
0.377778 0	 0.0
0.377778 0.0222222	 0.0
0.355556 0.0222222	 0.0
0.377778 0	 0.0
0.4 0	 0.0
0.4 0.0222222	 0.0
0.377778 0.0222222	 0.0
0.4 0	 0.0
0.422222 0	 0.0
0.422222 0.0222222	 0.0
0.4 0.0222222	 0.0
0.422222 0	 0.0
0.444444 0	 0.0
0.444444 0.0222222	 0.0
0.422222 0.0222222	 0.0
0.444444 0	 0.0
0.466667 0	 0.0
0.466667 0.0222222	 0.0
0.444444 0.0222222	 0.0
0.466667 0	 0.0
0.488889 0	 0.0
0.488889 0.0222222	 0.0
0.466667 0.0222222	 0.0
0.488889 0	 0.0
0.511111 0	 0.0
0.511111 0.0222222	 0.0
0.488889 0.0222222	 0.0
0.511111 0	 0.0
0.533333 0	 0.0
0.533333 0.0222222	 0.0
0.511111 0.0222222	 0.0
0.533333 0	 0.0
0.555556 0	 0.0
0.555556 0.0222222	 0.0
0.533333 0.0222222	 0.0
0.555556 0	 0.0
0.577778 0	 0.0
0.577778 0.0222222	 0.0
0.555556 0.0222222	 0.0
0.577778 0	 0.0
0.6 0	 0.0
0.6 0.0222222	 0.0
0.577778 0.0222222	 0.0
0.6 0	 0.0
0.622222 0	 0.0
0.622222 0.0222222	 0.0
0.6 0.0222222	 0.0
0.622222 0	 0.0
0.644444 0	 0.0
0.644444 0.0222222	 0.0
0.622222 0.0222222	 0.0
0.644444 0	 0.0
0.666667 0	 0.0
0.666667 0.0222222	 0.0
0.644444 0.0222222	 0.0
0.666667 0	 0.0
0.688889 0	 0.0
0.688889 0.0222222	 0.0
0.666667 0.0222222	 0.0
0.688889 0	 0.0
0.711111 0	 0.0
0.711111 0.0222222	 0.0
0.688889 0.0222222	 0.0
0.711111 0	 0.0
0.733333 0	 0.0
0.733333 0.0222222	 0.0
0.711111 0.0222222	 0.0
0.733333 0	 0.0
0.755556 0	 0.0
0.755556 0.0222222	 0.0
0.733333 0.0222222	 0.0
0.755556 0	 0.0
0.777778 0	 0.0
0.777778 0.0222222	 0.0
0.755556 0.0222222	 0.0
0.777778 0	 0.0
0.8 0	 0.0
0.8 0.0222222	 0.0
0.777778 0.0222222	 0.0
0.8 0	 0.0
0.822222 0	 0.0
0.822222 0.0222222	 0.0
0.8 0.0222222	 0.0
0.822222 0	 0.0
0.844444 0	 0.0
0.844444 0.0222222	 0.0
0.822222 0.0222222	 0.0
0.844444 0	 0.0
0.866667 0	 0.0
0.866667 0.0222222	 0.0
0.844444 0.0222222	 0.0
0.866667 0	 0.0
0.888889 0	 0.0
0.888889 0.0222222	 0.0
0.866667 0.0222222	 0.0
0.888889 0	 0.0
0.911111 0	 0.0
0.911111 0.0222222	 0.0
0.888889 0.0222222	 0.0
0.911111 0	 0.0
0.933333 0	 0.0
0.933333 0.0222222	 0.0
0.911111 0.0222222	 0.0
0.933333 0	 0.0
0.955556 0	 0.0
0.955556 0.0222222	 0.0
0.933333 0.0222222	 0.0
0.955556 0	 0.0
0.977778 0	 0.0
0.977778 0.0222222	 0.0
0.955556 0.0222222	 0.0
0.977778 0	 0.0
1 0	 0.0
1 0.0222222	 0.0
0.977778 0.0222222	 0.0
1 0	 0.0
1.02222 0	 0.0
1.02222 0.0222222	 0.0
1 0.0222222	 0.0
1.02222 0	 0.0
1.04444 0	 0.0
1.04444 0.0222222	 0.0
1.02222 0.0222222	 0.0
1.04444 0	 0.0
1.06667 0	 0.0
1.06667 0.0222222	 0.0
1.04444 0.0222222	 0.0
1.06667 0	 0.0
1.08889 0	 0.0
1.08889 0.0222222	 0.0
1.06667 0.0222222	 0.0
1.08889 0	 0.0
1.11111 0	 0.0
1.11111 0.0222222	 0.0
1.08889 0.0222222	 0.0
1.11111 0	 0.0
1.13333 0	 0.0
1.13333 0.0222222	 0.0
1.11111 0.0222222	 0.0
1.13333 0	 0.0
1.15556 0	 0.0
1.15556 0.0222222	 0.0
1.13333 0.0222222	 0.0
1.15556 0	 0.0
1.17778 0	 0.0
1.17778 0.0222222	 0.0
1.15556 0.0222222	 0.0
1.17778 0	 0.0
1.2 0	 0.0
1.2 0.0222222	 0.0
1.17778 0.0222222	 0.0
1.2 0	 0.0
1.22222 0	 0.0
1.22222 0.0222222	 0.0
1.2 0.0222222	 0.0
1.22222 0	 0.0
1.24444 0	 0.0
1.24444 0.0222222	 0.0
1.22222 0.0222222	 0.0
1.24444 0	 0.0
1.26667 0	 0.0
1.26667 0.0222222	 0.0
1.24444 0.0222222	 0.0
1.26667 0	 0.0
1.28889 0	 0.0
1.28889 0.0222222	 0.0
1.26667 0.0222222	 0.0
1.28889 0	 0.0
1.31111 0	 0.0
1.31111 0.0222222	 0.0
1.28889 0.0222222	 0.0
1.31111 0	 0.0
1.33333 0	 0.0
1.33333 0.0222222	 0.0
1.31111 0.0222222	 0.0
1.33333 0	 0.0
1.35556 0	 0.0
1.35556 0.0222222	 0.0
1.33333 0.0222222	 0.0
1.35556 0	 0.0
1.37778 0	 0.0
1.37778 0.0222222	 0.0
1.35556 0.0222222	 0.0
1.37778 0	 0.0
1.4 0	 0.0
1.4 0.0222222	 0.0
1.37778 0.0222222	 0.0
1.4 0	 0.0
1.42222 0	 0.0
1.42222 0.0222222	 0.0
1.4 0.0222222	 0.0
1.42222 0	 0.0
1.44444 0	 0.0
1.44444 0.0222222	 0.0
1.42222 0.0222222	 0.0
1.44444 0	 0.0
1.46667 0	 0.0
1.46667 0.0222222	 0.0
1.44444 0.0222222	 0.0
1.46667 0	 0.0
1.48889 0	 0.0
1.48889 0.0222222	 0.0
1.46667 0.0222222	 0.0
1.48889 0	 0.0
1.51111 0	 0.0
1.51111 0.0222222	 0.0
1.48889 0.0222222	 0.0
1.51111 0	 0.0
1.53333 0	 0.0
1.53333 0.0222222	 0.0
1.51111 0.0222222	 0.0
1.53333 0	 0.0
1.55556 0	 0.0
1.55556 0.0222222	 0.0
1.53333 0.0222222	 0.0
1.55556 0	 0.0
1.57778 0	 0.0
1.57778 0.0222222	 0.0
1.55556 0.0222222	 0.0
1.57778 0	 0.0
1.6 0	 0.0
1.6 0.0222222	 0.0
1.57778 0.0222222	 0.0
1.6 0	 0.0
1.62222 0	 0.0
1.62222 0.0222222	 0.0
1.6 0.0222222	 0.0
1.62222 0	 0.0
1.64444 0	 0.0
1.64444 0.0222222	 0.0
1.62222 0.0222222	 0.0
1.64444 0	 0.0
1.66667 0	 0.0
1.66667 0.0222222	 0.0
1.64444 0.0222222	 0.0
1.66667 0	 0.0
1.68889 0	 0.0
1.68889 0.0222222	 0.0
1.66667 0.0222222	 0.0
1.68889 0	 0.0
1.71111 0	 0.0
1.71111 0.0222222	 0.0
1.68889 0.0222222	 0.0
1.71111 0	 0.0
1.73333 0	 0.0
1.73333 0.0222222	 0.0
1.71111 0.0222222	 0.0
1.73333 0	 0.0
1.75556 0	 0.0
1.75556 0.0222222	 0.0
1.73333 0.0222222	 0.0
1.75556 0	 0.0
1.77778 0	 0.0
1.77778 0.0222222	 0.0
1.75556 0.0222222	 0.0
1.77778 0	 0.0
1.8 0	 0.0
1.8 0.0222222	 0.0
1.77778 0.0222222	 0.0
1.8 0	 0.0
1.82222 0	 0.0
1.82222 0.0222222	 0.0
1.8 0.0222222	 0.0
1.82222 0	 0.0
1.84444 0	 0.0
1.84444 0.0222222	 0.0
1.82222 0.0222222	 0.0
1.84444 0	 0.0
1.86667 0	 0.0
1.86667 0.0222222	 0.0
1.84444 0.0222222	 0.0
1.86667 0	 0.0
1.88889 0	 0.0
1.88889 0.0222222	 0.0
1.86667 0.0222222	 0.0
1.88889 0	 0.0
1.91111 0	 0.0
1.91111 0.0222222	 0.0
1.88889 0.0222222	 0.0
1.91111 0	 0.0
1.93333 0	 0.0
1.93333 0.0222222	 0.0
1.91111 0.0222222	 0.0
1.93333 0	 0.0
1.95556 0	 0.0
1.95556 0.0222222	 0.0
1.93333 0.0222222	 0.0
1.95556 0	 0.0
1.97778 0	 0.0
1.97778 0.0222222	 0.0
1.95556 0.0222222	 0.0
1.97778 0	 0.0
2 0	 0.0
2 0.0222222	 0.0
1.97778 0.0222222	 0.0
2 0	 0.0
2.02222 0	 0.0
2.02222 0.0222222	 0.0
2 0.0222222	 0.0
2.02222 0	 0.0
2.04444 0	 0.0
2.04444 0.0222222	 0.0
2.02222 0.0222222	 0.0
2.04444 0	 0.0
2.06667 0	 0.0
2.06667 0.0222222	 0.0
2.04444 0.0222222	 0.0
2.06667 0	 0.0
2.08889 0	 0.0
2.08889 0.0222222	 0.0
2.06667 0.0222222	 0.0
2.08889 0	 0.0
2.11111 0	 0.0
2.11111 0.0222222	 0.0
2.08889 0.0222222	 0.0
2.11111 0	 0.0
2.13333 0	 0.0
2.13333 0.0222222	 0.0
2.11111 0.0222222	 0.0
2.13333 0	 0.0
2.15556 0	 0.0
2.15556 0.0222222	 0.0
2.13333 0.0222222	 0.0
2.15556 0	 0.0
2.17778 0	 0.0
2.17778 0.0222222	 0.0
2.15556 0.0222222	 0.0
2.17778 0	 0.0
2.2 0	 0.0
2.2 0.0222222	 0.0
2.17778 0.0222222	 0.0
2.2 0	 0.0
2.22222 0	 0.0
2.22222 0.0222222	 0.0
2.2 0.0222222	 0.0
2.22222 0	 0.0
2.24444 0	 0.0
2.24444 0.0222222	 0.0
2.22222 0.0222222	 0.0
2.24444 0	 0.0
2.26667 0	 0.0
2.26667 0.0222222	 0.0
2.24444 0.0222222	 0.0
2.26667 0	 0.0
2.28889 0	 0.0
2.28889 0.0222222	 0.0
2.26667 0.0222222	 0.0
2.28889 0	 0.0
2.31111 0	 0.0
2.31111 0.0222222	 0.0
2.28889 0.0222222	 0.0
2.31111 0	 0.0
2.33333 0	 0.0
2.33333 0.0222222	 0.0
2.31111 0.0222222	 0.0
2.33333 0	 0.0
2.35556 0	 0.0
2.35556 0.0222222	 0.0
2.33333 0.0222222	 0.0
2.35556 0	 0.0
2.37778 0	 0.0
2.37778 0.0222222	 0.0
2.35556 0.0222222	 0.0
2.37778 0	 0.0
2.4 0	 0.0
2.4 0.0222222	 0.0
2.37778 0.0222222	 0.0
2.4 0	 0.0
2.42222 0	 0.0
2.42222 0.0222222	 0.0
2.4 0.0222222	 0.0
2.42222 0	 0.0
2.44444 0	 0.0
2.44444 0.0222222	 0.0
2.42222 0.0222222	 0.0
2.44444 0	 0.0
2.46667 0	 0.0
2.46667 0.0222222	 0.0
2.44444 0.0222222	 0.0
2.46667 0	 0.0
2.48889 0	 0.0
2.48889 0.0222222	 0.0
2.46667 0.0222222	 0.0
2.48889 0	 0.0
2.51111 0	 0.0
2.51111 0.0222222	 0.0
2.48889 0.0222222	 0.0
2.51111 0	 0.0
2.53333 0	 0.0
2.53333 0.0222222	 0.0
2.51111 0.0222222	 0.0
2.53333 0	 0.0
2.55556 0	 0.0
2.55556 0.0222222	 0.0
2.53333 0.0222222	 0.0
2.55556 0	 0.0
2.57778 0	 0.0
2.57778 0.0222222	 0.0
2.55556 0.0222222	 0.0
2.57778 0	 0.0
2.6 0	 0.0
2.6 0.0222222	 0.0
2.57778 0.0222222	 0.0
2.6 0	 0.0
2.62222 0	 0.0
2.62222 0.0222222	 0.0
2.6 0.0222222	 0.0
2.62222 0	 0.0
2.64444 0	 0.0
2.64444 0.0222222	 0.0
2.62222 0.0222222	 0.0
2.64444 0	 0.0
2.66667 0	 0.0
2.66667 0.0222222	 0.0
2.64444 0.0222222	 0.0
2.66667 0	 0.0
2.68889 0	 0.0
2.68889 0.0222222	 0.0
2.66667 0.0222222	 0.0
2.68889 0	 0.0
2.71111 0	 0.0
2.71111 0.0222222	 0.0
2.68889 0.0222222	 0.0
2.71111 0	 0.0
2.73333 0	 0.0
2.73333 0.0222222	 0.0
2.71111 0.0222222	 0.0
2.73333 0	 0.0
2.75556 0	 0.0
2.75556 0.0222222	 0.0
2.73333 0.0222222	 0.0
2.75556 0	 0.0
2.77778 0	 0.0
2.77778 0.0222222	 0.0
2.75556 0.0222222	 0.0
2.77778 0	 0.0
2.8 0	 0.0
2.8 0.0222222	 0.0
2.77778 0.0222222	 0.0
2.8 0	 0.0
2.82222 0	 0.0
2.82222 0.0222222	 0.0
2.8 0.0222222	 0.0
2.82222 0	 0.0
2.84444 0	 0.0
2.84444 0.0222222	 0.0
2.82222 0.0222222	 0.0
2.84444 0	 0.0
2.86667 0	 0.0
2.86667 0.0222222	 0.0
2.84444 0.0222222	 0.0
2.86667 0	 0.0
2.88889 0	 0.0
2.88889 0.0222222	 0.0
2.86667 0.0222222	 0.0
2.88889 0	 0.0
2.91111 0	 0.0
2.91111 0.0222222	 0.0
2.88889 0.0222222	 0.0
2.91111 0	 0.0
[...]
POINT_DATA 23424
SCALARS levelset_first float
LOOKUP_TABLE default
-0.875116
-0.842496
-0.816324
-0.848944
-0.842496
-0.810864
-0.784691
-0.816324
-0.810864
-0.780219
-0.754047
-0.784691
-0.780219
-0.750562
-0.72439
-0.754047
-0.750562
-0.721893
-0.69572
-0.72439
-0.721893
-0.694211
-0.668038
-0.69572
-0.694211
-0.667517
-0.641344
-0.668038
-0.667517
-0.641811
-0.615638
-0.641344
-0.641811
-0.617092
-0.590919
-0.615638
-0.617092
-0.593361
-0.567188
-0.590919
-0.593361
-0.570617
-0.544444
-0.567188
-0.570617
-0.548862
-0.522689
-0.544444
-0.548862
-0.528093
-0.501921
-0.522689
-0.528093
-0.508313
-0.48214
-0.501921
-0.508313
-0.48952
-0.463347
-0.48214
-0.48952
-0.471715
-0.445542
-0.463347
-0.471715
-0.454897
-0.428724
-0.445542
-0.454897
-0.439067
-0.412895
-0.428724
-0.439067
-0.424225
-0.398052
-0.412895
-0.424225
-0.410371
-0.384198
-0.398052
-0.410371
-0.397504
-0.371331
-0.384198
-0.397504
-0.385624
-0.359452
-0.371331
-0.385624
-0.374733
-0.34856
-0.359452
-0.374733
-0.364829
-0.338656
-0.34856
-0.364829
-0.355912
-0.32974
-0.338656
-0.355912
-0.347984
-0.321811
-0.32974
-0.347984
-0.341043
-0.31487
-0.321811
-0.341043
-0.335089
-0.308917
-0.31487
-0.335089
-0.330124
-0.303951
-0.308917
-0.330124
-0.326146
-0.299973
-0.303951
-0.326146
-0.323155
-0.296983
-0.299973
-0.323155
-0.321153
-0.29498
-0.296983
-0.321153
-0.320138
-0.293965
-0.29498
-0.320138
-0.32011
-0.293937
-0.293965
-0.32011
-0.32107
-0.294898
-0.293937
-0.32107
-0.323018
-0.296845
-0.294898
-0.323018
-0.325954
-0.299781
-0.296845
-0.325954
-0.329877
-0.303704
-0.299781
-0.329877
-0.334788
-0.308615
-0.303704
-0.334788
-0.340686
-0.314514
-0.308615
-0.340686
-0.347573
-0.3214
-0.314514
-0.347573
-0.355446
-0.329273
-0.3214
-0.355446
-0.364308
-0.338135
-0.329273
-0.364308
-0.374157
-0.347984
-0.338135
-0.374157
-0.384994
-0.358821
-0.347984
-0.384994
-0.396818
-0.370645
-0.358821
-0.396818
-0.40963
-0.383457
-0.370645
-0.40963
-0.42343
-0.397257
-0.383457
-0.42343
-0.438217
-0.412045
-0.397257
-0.438217
-0.453992
-0.42782
-0.412045
-0.453992
-0.470755
-0.444582
-0.42782
-0.470755
-0.488505
-0.462333
-0.444582
-0.488505
-0.507243
-0.481071
-0.462333
-0.507243
-0.526969
-0.500796
-0.481071
-0.526969
-0.547682
-0.52151
-0.500796
-0.547682
-0.569383
-0.543211
-0.52151
-0.569383
-0.592072
-0.565899
-0.543211
-0.592072
-0.615748
-0.589576
-0.565899
-0.615748
-0.640412
-0.614239
-0.589576
-0.640412
-0.666064
-0.639891
-0.614239
-0.666064
-0.692703
-0.66653
-0.639891
-0.692703
-0.72033
-0.694157
-0.66653
-0.72033
-0.748945
-0.722772
-0.694157
-0.748945
-0.778547
-0.752374
-0.722772
-0.778547
-0.809137
-0.782964
-0.752374
-0.809137
-0.840714
-0.814541
-0.782964
-0.840714
-0.873279
-0.847107
-0.814541
-0.873279
-0.906832
-0.880659
-0.847107
-0.906832
-0.941373
-0.9152
-0.880659
-0.941373
-0.976901
-0.950728
-0.9152
-0.976901
-1.01342
-0.987244
-0.950728
-1.01342
-1.05092
-1.02475
-0.987244
-1.05092
-1.08941
-1.06324
-1.02475
-1.08941
-1.12889
-1.10272
-1.06324
-1.12889
-1.16936
-1.14318
-1.10272
-1.16936
-1.21081
-1.18464
-1.14318
-1.21081
-1.25325
-1.22708
-1.18464
-1.25325
-1.29668
-1.27051
-1.22708
-1.29668
-1.3411
-1.31493
-1.27051
-1.3411
-1.3865
-1.36033
-1.31493
-1.3865
-1.4329
-1.40672
-1.36033
-1.4329
-1.48028
-1.4541
-1.40672
-1.48028
-1.52864
-1.50247
-1.4541
-1.52864
-1.578
-1.55183
-1.50247
-1.578
-1.62834
-1.60217
-1.55183
-1.62834
-1.67967
-1.6535
-1.60217
-1.67967
-1.73199
-1.70582
-1.6535
-1.73199
-1.7853
-1.75912
-1.70582
-1.7853
-1.83959
-1.81342
-1.75912
-1.83959
-1.89487
-1.8687
-1.81342
-1.89487
-1.95114
-1.92497
-1.8687
-1.95114
-2.0084
-1.98222
-1.92497
-2.0084
-2.06664
-2.04047
-1.98222
-2.06664
-2.12587
-2.0997
-2.04047
-2.12587
-2.18609
-2.15992
-2.0997
-2.18609
-2.2473
-2.22113
-2.15992
-2.2473
-2.30949
-2.28332
-2.22113
-2.30949
-2.37268
-2.3465
-2.28332
-2.37268
-2.43685
-2.41067
-2.3465
-2.43685
-2.502
-2.47583
-2.41067
-2.502
-2.56815
-2.54198
-2.47583
-2.56815
-2.63528
-2.60911
-2.54198
-2.63528
-2.7034
-2.67723
-2.60911
-2.7034
-2.77251
-2.74634
-2.67723
-2.77251
-2.84261
-2.81643
-2.74634
-2.84261
-2.91369
-2.88752
-2.81643
-2.91369
-2.98576
-2.95959
-2.88752
-2.98576
-3.05882
-3.03265
-2.95959
-3.05882
-3.13287
-3.1067
-3.03265
-3.13287
-3.2079
-3.18173
-3.1067
-3.2079
-3.28392
-3.25775
-3.18173
-3.28392
-3.36093
-3.33476
-3.25775
-3.36093
-3.43893
-3.41276
-3.33476
-3.43893
-3.51792
-3.49174
-3.41276
-3.51792
-3.59789
-3.57172
-3.49174
-3.59789
-3.67885
-3.65268
-3.57172
-3.67885
-3.7608
-3.73462
-3.65268
-3.7608
-3.84373
-3.81756
-3.73462
-3.84373
-3.92766
-3.90148
-3.81756
-3.92766
-4.01257
-3.98639
-3.90148
-4.01257
-4.09847
-4.07229
-3.98639
-4.09847
-4.18535
-4.15918
-4.07229
-4.18535
-4.27323
-4.24705
-4.15918
-4.27323
-4.36209
-4.33591
-4.24705
-4.36209
-4.45194
-4.42576
-4.33591
-4.45194
-4.54277
-4.5166
-4.42576
-4.54277
-4.6346
-4.60842
-4.5166
-4.6346
-4.72741
-4.70124
-4.60842
-4.72741
-4.82121
-4.79504
-4.70124
-4.82121
-4.916
-4.88982
-4.79504
-4.916
-5.01177
-4.9856
-4.88982
-5.01177
-5.10853
-5.08236
-4.9856
-5.10853
-5.20628
-5.18011
-5.08236
-5.20628
-5.30502
-5.27885
-5.18011
-5.30502
-5.40475
-5.37858
-5.27885
-0.848944
-0.816324
-0.791138
-0.823758
-0.816324
-0.784691
-0.759506
-0.791138
-0.784691
-0.754047
-0.728861
-0.759506
-0.754047
-0.72439
-0.699204
-0.728861
-0.72439
-0.69572
-0.670535
-0.699204
-0.69572
-0.668038
-0.642853
-0.670535
-0.668038
-0.641344
-0.616159
-0.642853
-0.641344
-0.615638
-0.590453
-0.616159
-0.615638
-0.590919
-0.565734
-0.590453
-0.590919
-0.567188
-0.542003
-0.565734
-0.567188
-0.544444
-0.519259
-0.542003
-0.544444
-0.522689
-0.497503
-0.519259
-0.522689
-0.501921
-0.476735
-0.497503
-0.501921
-0.48214
-0.456955
-0.476735
-0.48214
-0.463347
-0.438162
-0.456955
-0.463347
-0.445542
-0.420357
-0.438162
-0.445542
-0.428724
-0.403539
-0.420357
-0.428724
-0.412895
-0.387709
-0.403539
-0.412895
-0.398052
-0.372867
-0.387709
-0.398052
-0.384198
-0.359013
-0.372867
-0.384198
-0.371331
-0.346146
-0.359013
-0.371331
-0.359452
-0.334266
-0.346146
-0.359452
-0.34856
-0.323375
-0.334266
-0.34856
-0.338656
-0.313471
-0.323375
-0.338656
-0.32974
-0.304554
-0.313471
-0.32974
-0.321811
-0.296626
-0.304554
-0.321811
-0.31487
-0.289685
-0.296626
-0.31487
-0.308917
-0.283731
-0.289685
-0.308917
-0.303951
-0.278766
-0.283731
-0.303951
-0.299973
-0.274788
-0.278766
-0.299973
-0.296983
-0.271797
-0.274788
-0.296983
-0.29498
-0.269795
-0.271797
-0.29498
-0.293965
-0.26878
-0.269795
-0.293965
-0.293937
-0.268752
-0.26878
-0.293937
-0.294898
-0.269712
-0.268752
-0.294898
-0.296845
-0.27166
-0.269712
-0.296845
-0.299781
-0.274596
-0.27166
-0.299781
-0.303704
-0.278519
-0.274596
-0.303704
-0.308615
-0.28343
-0.278519
-0.308615
-0.314514
-0.289328
-0.28343
-0.314514
-0.3214
-0.296214
-0.289328
-0.3214
-0.329273
-0.304088
-0.296214
-0.329273
-0.338135
-0.31295
-0.304088
-0.338135
-0.347984
-0.322799
-0.31295
-0.347984
-0.358821
-0.333636
-0.322799
-0.358821
-0.370645
-0.34546
-0.333636
-0.370645
-0.383457
-0.358272
-0.34546
-0.383457
-0.397257
-0.372072
-0.358272
-0.397257
-0.412045
-0.386859
-0.372072
-0.412045
-0.42782
-0.402634
-0.386859
-0.42782
-0.444582
-0.419397
-0.402634
-0.444582
-0.462333
-0.437147
-0.419397
-0.462333
-0.481071
-0.455885
-0.437147
-0.481071
-0.500796
-0.475611
-0.455885
-0.500796
-0.52151
-0.496324
-0.475611
-0.52151
-0.543211
-0.518025
-0.496324
-0.543211
-0.565899
-0.540714
-0.518025
-0.565899
-0.589576
-0.56439
-0.540714
-0.589576
-0.614239
-0.589054
-0.56439
-0.614239
-0.639891
-0.614706
-0.589054
-0.639891
-0.66653
-0.641345
-0.614706
-0.66653
-0.694157
-0.668972
-0.641345
-0.694157
-0.722772
-0.697587
-0.668972
-0.722772
-0.752374
-0.727189
-0.697587
-0.752374
-0.782964
-0.757779
-0.727189
-0.782964
-0.814541
-0.789356
-0.757779
-0.814541
-0.847107
-0.821921
-0.789356
-0.847107
-0.880659
-0.855474
-0.821921
-0.880659
-0.9152
-0.890015
-0.855474
-0.9152
-0.950728
-0.925543
-0.890015
-0.950728
-0.987244
-0.962059
-0.925543
-0.987244
-1.02475
-0.999562
-0.962059
-1.02475
-1.06324
-1.03805
-0.999562
-1.06324
-1.10272
-1.07753
-1.03805
-1.10272
-1.14318
-1.118
-1.07753
-1.14318
-1.18464
-1.15945
-1.118
-1.18464
-1.22708
-1.20189
-1.15945
-1.22708
-1.27051
-1.24532
-1.20189
-1.27051
-1.31493
-1.28974
-1.24532
-1.31493
-1.36033
-1.33515
-1.28974
-1.36033
-1.40672
-1.38154
-1.33515
-1.40672
-1.4541
-1.42892
-1.38154
-1.4541
-1.50247
-1.47729
-1.42892
-1.50247
-1.55183
-1.52664
-1.47729
-1.55183
-1.60217
-1.57698
-1.52664
-1.60217
-1.6535
-1.62831
-1.57698
-1.6535
-1.70582
-1.68063
-1.62831
-1.70582
-1.75912
-1.73394
-1.68063
-1.75912
-1.81342
-1.78823
-1.73394
-1.81342
-1.8687
-1.84351
-1.78823
-1.8687
-1.92497
-1.89978
-1.84351
-1.92497
-1.98222
-1.95704
-1.89978
-1.98222
-2.04047
-2.01528
-1.95704
-2.04047
-2.0997
-2.07451
-2.01528
-2.0997
-2.15992
-2.13473
-2.07451
-2.15992
-2.22113
-2.19594
-2.13473
-2.22113
-2.28332
-2.25814
-2.19594
-2.28332
-2.3465
-2.32132
-2.25814
-2.3465
-2.41067
-2.38549
-2.32132
-2.41067
-2.47583
-2.45065
-2.38549
-2.47583
-2.54198
-2.51679
-2.45065
-2.54198
-2.60911
-2.58392
-2.51679
-2.60911
-2.67723
-2.65205
-2.58392
-2.67723
-2.74634
-2.72115
-2.65205
-2.74634
-2.81643
-2.79125
-2.72115
-2.81643
-2.88752
-2.86233
-2.79125
-2.88752
-2.95959
-2.9344
-2.86233
-2.95959
-3.03265
-3.00746
-2.9344
-3.03265
-3.1067
-3.08151
-3.00746
-3.1067
-3.18173
-3.15654
-3.08151
-3.18173
-3.25775
-3.23257
-3.15654
-3.25775
-3.33476
-3.30958
-3.23257
-3.33476
-3.41276
-3.38757
-3.30958
-3.41276
-3.49174
-3.46656
-3.38757
-3.49174
-3.57172
-3.54653
-3.46656
-3.57172
-3.65268
-3.62749
-3.54653
-3.65268
-3.73462
-3.70944
-3.62749
-3.73462
-3.81756
-3.79237
-3.70944
-3.81756
-3.90148
-3.8763
-3.79237
-3.90148
-3.98639
-3.96121
-3.8763
-3.98639
-4.07229
-4.04711
-3.96121
-4.07229
-4.15918
-4.13399
-4.04711
-4.15918
-4.24705
-4.22187
-4.13399
-4.24705
-4.33591
-4.31073
-4.22187
-4.33591
-4.42576
-4.40058
-4.31073
-4.42576
-4.5166
-4.49141
-4.40058
-4.5166
-4.60842
-4.58324
-4.49141
-4.60842
-4.70124
-4.67605
-4.58324
-4.70124
-4.79504
-4.76985
-4.67605
-4.79504
-4.88982
-4.86464
-4.76985
-4.88982
-4.9856
-4.96041
-4.86464
-4.9856
-5.08236
-5.05718
-4.96041
-5.08236
-5.18011
-5.15493
-5.05718
-5.18011
-5.27885
-5.25366
-5.15493
-5.27885
-5.37858
-5.35339
-5.25366
-0.823758
-0.791138
-0.766941
-0.799561
-0.791138
-0.759506
-0.735309
-0.766941
-0.759506
-0.728861
-0.704664
-0.735309
-0.728861
-0.699204
-0.675007
-0.704664
-0.699204
-0.670535
-0.646337
-0.675007
-0.670535
-0.642853
-0.618656
-0.646337
-0.642853
-0.616159
-0.591962
-0.618656
-0.616159
-0.590453
-0.566255
-0.591962
-0.590453
-0.565734
-0.541536
-0.566255
-0.565734
-0.542003
-0.517805
-0.541536
-0.542003
-0.519259
-0.495062
-0.517805
-0.519259
-0.497503
-0.473306
-0.495062
-0.497503
-0.476735
-0.452538
-0.473306
-0.476735
-0.456955
-0.432757
-0.452538
-0.456955
-0.438162
-0.413964
-0.432757
-0.438162
-0.420357
-0.396159
-0.413964
-0.420357
-0.403539
-0.379342
-0.396159
-0.403539
-0.387709
-0.363512
-0.379342
-0.387709
-0.372867
-0.34867
-0.363512
-0.372867
-0.359013
-0.334815
-0.34867
-0.359013
-0.346146
-0.321948
-0.334815
-0.346146
-0.334266
-0.310069
-0.321948
-0.334266
-0.323375
-0.299177
-0.310069
-0.323375
-0.313471
-0.289273
-0.299177
-0.313471
-0.304554
-0.280357
-0.289273
-0.304554
-0.296626
-0.272428
-0.280357
-0.296626
-0.289685
-0.265487
-0.272428
-0.289685
-0.283731
-0.259534
-0.265487
-0.283731
-0.278766
-0.254568
-0.259534
-0.278766
-0.274788
-0.25059
-0.254568
-0.274788
-0.271797
-0.2476
-0.25059
-0.271797
-0.269795
-0.245597
-0.2476
-0.269795
-0.26878
-0.244582
-0.245597
-0.26878
-0.268752
-0.244555
-0.244582
-0.268752
-0.269712
-0.245515
-0.244555
-0.269712
-0.27166
-0.247463
-0.245515
-0.27166
-0.274596
-0.250398
-0.247463
-0.274596
-0.278519
-0.254321
-0.250398
-0.278519
-0.28343
-0.259232
-0.254321
-0.28343
-0.289328
-0.265131
-0.259232
-0.289328
-0.296214
-0.272017
-0.265131
-0.296214
-0.304088
-0.279891
-0.272017
-0.304088
-0.31295
-0.288752
-0.279891
-0.31295
-0.322799
-0.298601
-0.288752
-0.322799
-0.333636
-0.309438
-0.298601
-0.333636
-0.34546
-0.321263
-0.309438
-0.34546
-0.358272
-0.334075
-0.321263
-0.358272
-0.372072
-0.347874
-0.334075
-0.372072
-0.386859
-0.362662
-0.347874
-0.386859
-0.402634
-0.378437
-0.362662
-0.402634
-0.419397
-0.3952
-0.378437
-0.419397
-0.437147
-0.41295
-0.3952
-0.437147
-0.455885
-0.431688
-0.41295
-0.455885
-0.475611
-0.451414
-0.431688
-0.475611
-0.496324
-0.472127
-0.451414
-0.496324
-0.518025
-0.493828
-0.472127
-0.518025
-0.540714
-0.516517
-0.493828
-0.540714
-0.56439
-0.540193
-0.516517
-0.56439
-0.589054
-0.564857
-0.540193
-0.589054
-0.614706
-0.590508
-0.564857
-0.614706
-0.641345
-0.617148
-0.590508
-0.641345
-0.668972
-0.644774
-0.617148
-0.668972
-0.697587
-0.673389
-0.644774
-0.697587
-0.727189
-0.702991
-0.673389
-0.727189
-0.757779
-0.733581
-0.702991
-0.757779
-0.789356
-0.765159
-0.733581
-0.789356
-0.821921
-0.797724
-0.765159
-0.821921
-0.855474
-0.831277
-0.797724
-0.855474
-0.890015
-0.865817
-0.831277
-0.890015
-0.925543
-0.901345
-0.865817
-0.925543
-0.962059
-0.937861
-0.901345
-0.962059
-0.999562
-0.975364
-0.937861
-0.999562
-1.03805
-1.01386
-0.975364
-1.03805
-1.07753
-1.05333
-1.01386
-1.07753
-1.118
-1.0938
-1.05333
-1.118
-1.15945
-1.13525
-1.0938
-1.15945
-1.20189
-1.1777
-1.13525
-1.20189
-1.24532
-1.22113
-1.1777
-1.24532
-1.28974
-1.26554
-1.22113
-1.28974
-1.33515
-1.31095
-1.26554
-1.33515
-1.38154
-1.35734
-1.31095
-1.38154
-1.42892
-1.40472
-1.35734
-1.42892
-1.47729
-1.45309
-1.40472
-1.47729
-1.52664
-1.50244
-1.45309
-1.52664
-1.57698
-1.55279
-1.50244
-1.57698
-1.62831
-1.60412
-1.55279
-1.62831
-1.68063
-1.65643
-1.60412
-1.68063
-1.73394
-1.70974
-1.65643
-1.73394
-1.78823
-1.76403
-1.70974
-1.78823
-1.84351
-1.81932
-1.76403
-1.84351
-1.89978
-1.87558
-1.81932
-1.89978
-1.95704
-1.93284
-1.87558
-1.95704
-2.01528
-1.99108
-1.93284
-2.01528
-2.07451
-2.05032
-1.99108
-2.07451
-2.13473
-2.11054
-2.05032
-2.13473
-2.19594
-2.17174
-2.11054
-2.19594
-2.25814
-2.23394
-2.17174
-2.25814
-2.32132
-2.29712
-2.23394
-2.32132
-2.38549
-2.36129
-2.29712
-2.38549
-2.45065
-2.42645
-2.36129
-2.45065
-2.51679
-2.49259
-2.42645
-2.51679
-2.58392
-2.55973
-2.49259
-2.58392
-2.65205
-2.62785
-2.55973
-2.65205
-2.72115
-2.69696
-2.62785
-2.72115
-2.79125
-2.76705
-2.69696
-2.79125
-2.86233
-2.83814
-2.76705
-2.86233
-2.9344
-2.91021
-2.83814
-2.9344
-3.00746
-2.98327
-2.91021
-3.00746
-3.08151
-3.05731
-2.98327
-3.08151
-3.15654
-3.13235
-3.05731
-3.15654
-3.23257
-3.20837
-3.13235
-3.23257
-3.30958
-3.28538
-3.20837
-3.30958
-3.38757
-3.36338
-3.28538
-3.38757
-3.46656
-3.44236
-3.36338
-3.46656
-3.54653
-3.52233
-3.44236
-3.54653
-3.62749
-3.60329
-3.52233
-3.62749
-3.70944
-3.68524
-3.60329
-3.70944
-3.79237
-3.76818
-3.68524
-3.79237
-3.8763
-3.8521
-3.76818
-3.8763
-3.96121
-3.93701
-3.8521
-3.96121
-4.04711
-4.02291
-3.93701
-4.04711
-4.13399
-4.1098
-4.02291
-4.13399
-4.22187
-4.19767
-4.1098
-4.22187
-4.31073
-4.28653
-4.19767
-4.31073
-4.40058
-4.37638
-4.28653
-4.40058
-4.49141
-4.46722
-4.37638
-4.49141
-4.58324
-4.55904
-4.46722
-4.58324
-4.67605
-4.65185
-4.55904
-4.67605
-4.76985
-4.74565
-4.65185
-4.76985
-4.86464
-4.84044
-4.74565
-4.86464
-4.96041
-4.93622
-4.84044
-4.96041
-5.05718
-5.03298
-4.93622
-5.05718
-5.15493
-5.13073
-5.03298
-5.15493
-5.25366
-5.22947
-5.13073
-5.25366
-5.35339
-5.32919
-5.22947
-0.799561
-0.766941
-0.743731
-0.776351
-0.766941
-0.735309
-0.712099
-0.743731
-0.735309
-0.704664
-0.681454
-0.712099
-0.704664
-0.675007
-0.651797
-0.681454
-0.675007
-0.646337
-0.623128
-0.651797
-0.646337
-0.618656
-0.595446
-0.623128
-0.618656
-0.591962
-0.568752
-0.595446
-0.591962
-0.566255
-0.543045
-0.568752
-0.566255
-0.541536
-0.518326
-0.543045
-0.541536
-0.517805
-0.494595
-0.518326
-0.517805
-0.495062
-0.471852
-0.494595
-0.495062
-0.473306
-0.450096
-0.471852
-0.473306
-0.452538
-0.429328
-0.450096
-0.452538
-0.432757
-0.409547
-0.429328
-0.432757
-0.413964
-0.390755
-0.409547
-0.413964
-0.396159
-0.372949
-0.390755
-0.396159
-0.379342
-0.356132
-0.372949
-0.379342
-0.363512
-0.340302
-0.356132
-0.363512
-0.34867
-0.32546
-0.340302
-0.34867
-0.334815
-0.311605
-0.32546
-0.334815
-0.321948
-0.298738
-0.311605
-0.321948
-0.310069
-0.286859
-0.298738
-0.310069
-0.299177
-0.275967
-0.286859
-0.299177
-0.289273
-0.266063
-0.275967
-0.289273
-0.280357
-0.257147
-0.266063
-0.280357
-0.272428
-0.249218
-0.257147
-0.272428
-0.265487
-0.242277
-0.249218
-0.265487
-0.259534
-0.236324
-0.242277
-0.259534
-0.254568
-0.231358
-0.236324
-0.254568
-0.25059
-0.22738
-0.231358
-0.25059
-0.2476
-0.22439
-0.22738
-0.2476
-0.245597
-0.222387
-0.22439
-0.245597
-0.244582
-0.221372
-0.222387
-0.244582
-0.244555
-0.221345
-0.221372
-0.244555
-0.245515
-0.222305
-0.221345
-0.245515
-0.247463
-0.224253
-0.222305
-0.247463
-0.250398
-0.227188
-0.224253
-0.250398
-0.254321
-0.231112
-0.227188
-0.254321
-0.259232
-0.236022
-0.231112
-0.259232
-0.265131
-0.241921
-0.236022
-0.265131
-0.272017
-0.248807
-0.241921
-0.272017
-0.279891
-0.256681
-0.248807
-0.279891
-0.288752
-0.265542
-0.256681
-0.288752
-0.298601
-0.275391
-0.265542
-0.298601
-0.309438
-0.286228
-0.275391
-0.309438
-0.321263
-0.298053
-0.286228
-0.321263
-0.334075
-0.310865
-0.298053
-0.334075
-0.347874
-0.324665
-0.310865
-0.347874
-0.362662
-0.339452
-0.324665
-0.362662
-0.378437
-0.355227
-0.339452
-0.378437
-0.3952
-0.37199
-0.355227
-0.3952
-0.41295
-0.38974
-0.37199
-0.41295
-0.431688
-0.408478
-0.38974
-0.431688
-0.451414
-0.428204
-0.408478
-0.451414
-0.472127
-0.448917
-0.428204
-0.472127
-0.493828
-0.470618
-0.448917
-0.493828
-0.516517
-0.493307
-0.470618
-0.516517
-0.540193
-0.516983
-0.493307
-0.540193
-0.564857
-0.541647
-0.516983
-0.564857
-0.590508
-0.567298
-0.541647
-0.590508
-0.617148
-0.593938
-0.567298
-0.617148
-0.644774
-0.621565
-0.593938
-0.644774
-0.673389
-0.650179
-0.621565
-0.673389
-0.702991
-0.679781
-0.650179
-0.702991
-0.733581
-0.710371
-0.679781
-0.733581
-0.765159
-0.741949
-0.710371
-0.765159
-0.797724
-0.774514
-0.741949
-0.797724
-0.831277
-0.808067
-0.774514
-0.831277
-0.865817
-0.842607
-0.808067
-0.865817
-0.901345
-0.878135
-0.842607
-0.901345
-0.937861
-0.914651
-0.878135
-0.937861
-0.975364
-0.952155
-0.914651
-0.975364
-1.01386
-0.990646
-0.952155
-1.01386
-1.05333
-1.03012
-0.990646
-1.05333
-1.0938
-1.07059
-1.03012
-1.0938
-1.13525
-1.11204
-1.07059
-1.13525
-1.1777
-1.15449
-1.11204
-1.1777
-1.22113
-1.19792
-1.15449
-1.22113
-1.26554
-1.24233
-1.19792
-1.26554
-1.31095
-1.28774
-1.24233
-1.31095
-1.35734
-1.33413
-1.28774
-1.35734
-1.40472
-1.38151
-1.33413
-1.40472
-1.45309
-1.42988
-1.38151
-1.45309
-1.50244
-1.47923
-1.42988
-1.50244
-1.55279
-1.52958
-1.47923
-1.55279
-1.60412
-1.58091
-1.52958
-1.60412
-1.65643
-1.63322
-1.58091
-1.65643
-1.70974
-1.68653
-1.63322
-1.70974
-1.76403
-1.74082
-1.68653
-1.76403
-1.81932
-1.79611
-1.74082
-1.81932
-1.87558
-1.85237
-1.79611
-1.87558
-1.93284
-1.90963
-1.85237
-1.93284
-1.99108
-1.96788
-1.90963
-1.99108
-2.05032
-2.02711
-1.96788
-2.05032
-2.11054
-2.08733
-2.02711
-2.11054
-2.17174
-2.14853
-2.08733
-2.17174
-2.23394
-2.21073
-2.14853
-2.23394
-2.29712
-2.27391
-2.21073
-2.29712
-2.36129
-2.33808
-2.27391
-2.36129
-2.42645
-2.40324
-2.33808
-2.42645
-2.49259
-2.46938
-2.40324
-2.49259
-2.55973
-2.53652
-2.46938
-2.55973
-2.62785
-2.60464
-2.53652
-2.62785
-2.69696
-2.67375
-2.60464
-2.69696
-2.76705
-2.74384
-2.67375
-2.76705
-2.83814
-2.81493
-2.74384
-2.83814
-2.91021
-2.887
-2.81493
-2.91021
-2.98327
-2.96006
-2.887
-2.98327
-3.05731
-3.0341
-2.96006
-3.05731
-3.13235
-3.10914
-3.0341
-3.13235
-3.20837
-3.18516
-3.10914
-3.20837
-3.28538
-3.26217
-3.18516
-3.28538
-3.36338
-3.34017
-3.26217
-3.36338
-3.44236
-3.41915
-3.34017
-3.44236
-3.52233
-3.49912
-3.41915
-3.52233
-3.60329
-3.58008
-3.49912
-3.60329
-3.68524
-3.66203
-3.58008
-3.68524
-3.76818
-3.74497
-3.66203
-3.76818
-3.8521
-3.82889
-3.74497
-3.8521
-3.93701
-3.9138
-3.82889
-3.93701
-4.02291
-3.9997
-3.9138
-4.02291
-4.1098
-4.08659
-3.9997
-4.1098
-4.19767
-4.17446
-4.08659