# vtk DataFile Version 1.0
unstructured Grid
ASCII
DATASET UNSTRUCTURED_GRID
POINTS 23440 float 
0 0	 0.0
0.0222222 0	 0.0
0.0222222 0.0222222	 0.0
0 0.0222222	 0.0
0.0222222 0	 0.0
0.0444444 0	 0.0
0.0444444 0.0222222	 0.0
0.0222222 0.0222222	 0.0
0.0444444 0	 0.0
0.0666667 0	 0.0
0.0666667 0.0222222	 0.0
0.0444444 0.0222222	 0.0
0.0666667 0	 0.0
0.0888889 0	 0.0
0.0888889 0.0222222	 0.0
0.0666667 0.0222222	 0.0
0.0888889 0	 0.0
0.111111 0	 0.0
0.111111 0.0222222	 0.0
0.0888889 0.0222222	 0.0
0.111111 0	 0.0
0.133333 0	 0.0
0.133333 0.0222222	 0.0
0.111111 0.0222222	 0.0
0.133333 0	 0.0
0.155556 0	 0.0
0.155556 0.0222222	 0.0
0.133333 0.0222222	 0.0
0.155556 0	 0.0
0.177778 0	 0.0
0.177778 0.0222222	 0.0
0.155556 0.0222222	 0.0
0.177778 0	 0.0
0.2 0	 0.0
0.2 0.0222222	 0.0
0.177778 0.0222222	 0.0
0.2 0	 0.0
0.222222 0	 0.0
0.222222 0.0222222	 0.0
0.2 0.0222222	 0.0
0.222222 0	 0.0
0.244444 0	 0.0
0.244444 0.0222222	 0.0
0.222222 0.0222222	 0.0
0.244444 0	 0.0
0.266667 0	 0.0
0.266667 0.0222222	 0.0
0.244444 0.0222222	 0.0
0.266667 0	 0.0
0.288889 0	 0.0
0.288889 0.0222222	 0.0
0.266667 0.0222222	 0.0
0.288889 0	 0.0
0.311111 0	 0.0
0.311111 0.0222222	 0.0
0.288889 0.0222222	 0.0
0.311111 0	 0.0
0.333333 0	 0.0
0.333333 0.0222222	 0.0
0.311111 0.0222222	 0.0
0.333333 0	 0.0
0.355556 0	 0.0
0.355556 0.0222222	 0.0
0.333333 0.0222222	 0.0
0.355556 0	 0.0
0.377778 0	 0.0
0.377778 0.0222222	 0.0
0.355556 0.0222222	 0.0
0.377778 0	 0.0
0.4 0	 0.0
0.4 0.0222222	 0.0
0.377778 0.0222222	 0.0
0.4 0	 0.0
0.422222 0	 0.0
0.422222 0.0222222	 0.0
0.4 0.0222222	 0.0
0.422222 0	 0.0
0.444444 0	 0.0
0.444444 0.0222222	 0.0
0.422222 0.0222222	 0.0
0.444444 0	 0.0
0.466667 0	 0.0
0.466667 0.0222222	 0.0
0.444444 0.0222222	 0.0
0.466667 0	 0.0
0.488889 0	 0.0
0.488889 0.0222222	 0.0
0.466667 0.0222222	 0.0
0.488889 0	 0.0
0.511111 0	 0.0
0.511111 0.0222222	 0.0
0.488889 0.0222222	 0.0
0.511111 0	 0.0
0.533333 0	 0.0
0.533333 0.0222222	 0.0
0.511111 0.0222222	 0.0
0.533333 0	 0.0
0.555556 0	 0.0
0.555556 0.0222222	 0.0
0.533333 0.0222222	 0.0
0.555556 0	 0.0
0.577778 0	 0.0
0.577778 0.0222222	 0.0
0.555556 0.0222222	 0.0
0.577778 0	 0.0
0.6 0	 0.0
0.6 0.0222222	 0.0
0.577778 0.0222222	 0.0
0.6 0	 0.0
0.622222 0	 0.0
0.622222 0.0222222	 0.0
0.6 0.0222222	 0.0
0.622222 0	 0.0
0.644444 0	 0.0
0.644444 0.0222222	 0.0
0.622222 0.0222222	 0.0
0.644444 0	 0.0
0.666667 0	 0.0
0.666667 0.0222222	 0.0
0.644444 0.0222222	 0.0
0.666667 0	 0.0
0.688889 0	 0.0
0.688889 0.0222222	 0.0
0.666667 0.0222222	 0.0
0.688889 0	 0.0
0.711111 0	 0.0
0.711111 0.0222222	 0.0
0.688889 0.0222222	 0.0
0.711111 0	 0.0
0.733333 0	 0.0
0.733333 0.0222222	 0.0
0.711111 0.0222222	 0.0
0.733333 0	 0.0
0.755556 0	 0.0
0.755556 0.0222222	 0.0
0.733333 0.0222222	 0.0
0.755556 0	 0.0
0.777778 0	 0.0
0.777778 0.0222222	 0.0
0.755556 0.0222222	 0.0
0.777778 0	 0.0
0.8 0	 0.0
0.8 0.0222222	 0.0
0.777778 0.0222222	 0.0
0.8 0	 0.0
0.822222 0	 0.0
0.822222 0.0222222	 0.0
0.8 0.0222222	 0.0
0.822222 0	 0.0
0.844444 0	 0.0
0.844444 0.0222222	 0.0
0.822222 0.0222222	 0.0
0.844444 0	 0.0
0.866667 0	 0.0
0.866667 0.0222222	 0.0
0.844444 0.0222222	 0.0
0.866667 0	 0.0
0.888889 0	 0.0
0.888889 0.0222222	 0.0
0.866667 0.0222222	 0.0
0.888889 0	 0.0
0.911111 0	 0.0
0.911111 0.0222222	 0.0
0.888889 0.0222222	 0.0
0.911111 0	 0.0
0.933333 0	 0.0
0.933333 0.0222222	 0.0
0.911111 0.0222222	 0.0
0.933333 0	 0.0
0.955556 0	 0.0
0.955556 0.0222222	 0.0
0.933333 0.0222222	 0.0
0.955556 0	 0.0
0.977778 0	 0.0
0.977778 0.0222222	 0.0
0.955556 0.0222222	 0.0
0.977778 0	 0.0
1 0	 0.0
1 0.0222222	 0.0
0.977778 0.0222222	 0.0
1 0	 0.0
1.02222 0	 0.0
1.02222 0.0222222	 0.0
1 0.0222222	 0.0
1.02222 0	 0.0
1.04444 0	 0.0
1.04444 0.0222222	 0.0
1.02222 0.0222222	 0.0
1.04444 0	 0.0
1.06667 0	 0.0
1.06667 0.0222222	 0.0
1.04444 0.0222222	 0.0
1.06667 0	 0.0
1.08889 0	 0.0
1.08889 0.0222222	 0.0
1.06667 0.0222222	 0.0
1.08889 0	 0.0
1.11111 0	 0.0
1.11111 0.0222222	 0.0
1.08889 0.0222222	 0.0
1.11111 0	 0.0
1.13333 0	 0.0
1.13333 0.0222222	 0.0
1.11111 0.0222222	 0.0
1.13333 0	 0.0
1.15556 0	 0.0
1.15556 0.0222222	 0.0
1.13333 0.0222222	 0.0
1.15556 0	 0.0
1.17778 0	 0.0
1.17778 0.0222222	 0.0
1.15556 0.0222222	 0.0
1.17778 0	 0.0
1.2 0	 0.0
1.2 0.0222222	 0.0
1.17778 0.0222222	 0.0
1.2 0	 0.0
1.22222 0	 0.0
1.22222 0.0222222	 0.0
1.2 0.0222222	 0.0
1.22222 0	 0.0
1.24444 0	 0.0
1.24444 0.0222222	 0.0
1.22222 0.0222222	 0.0
1.24444 0	 0.0
1.26667 0	 0.0
1.26667 0.0222222	 0.0
1.24444 0.0222222	 0.0
1.26667 0	 0.0
1.28889 0	 0.0
1.28889 0.0222222	 0.0
1.26667 0.0222222	 0.0
1.28889 0	 0.0
1.31111 0	 0.0
1.31111 0.0222222	 0.0
1.28889 0.0222222	 0.0
1.31111 0	 0.0
1.33333 0	 0.0
1.33333 0.0222222	 0.0
1.31111 0.0222222	 0.0
1.33333 0	 0.0
1.35556 0	 0.0
1.35556 0.0222222	 0.0
1.33333 0.0222222	 0.0
1.35556 0	 0.0
1.37778 0	 0.0
1.37778 0.0222222	 0.0
1.35556 0.0222222	 0.0
1.37778 0	 0.0
1.4 0	 0.0
1.4 0.0222222	 0.0
1.37778 0.0222222	 0.0
1.4 0	 0.0
1.42222 0	 0.0
1.42222 0.0222222	 0.0
1.4 0.0222222	 0.0
1.42222 0	 0.0
1.44444 0	 0.0
1.44444 0.0222222	 0.0
1.42222 0.0222222	 0.0
1.44444 0	 0.0
1.46667 0	 0.0
1.46667 0.0222222	 0.0
1.44444 0.0222222	 0.0
1.46667 0	 0.0
1.48889 0	 0.0
1.48889 0.0222222	 0.0
1.46667 0.0222222	 0.0
1.48889 0	 0.0
1.51111 0	 0.0
1.51111 0.0222222	 0.0
1.48889 0.0222222	 0.0
1.51111 0	 0.0
1.53333 0	 0.0
1.53333 0.0222222	 0.0
1.51111 0.0222222	 0.0
1.53333 0	 0.0
1.55556 0	 0.0
1.55556 0.0222222	 0.0
1.53333 0.0222222	 0.0
1.55556 0	 0.0
1.57778 0	 0.0
1.57778 0.0222222	 0.0
1.55556 0.0222222	 0.0
1.57778 0	 0.0
1.6 0	 0.0
1.6 0.0222222	 0.0
1.57778 0.0222222	 0.0
1.6 0	 0.0
1.62222 0	 0.0
1.62222 0.0222222	 0.0
1.6 0.0222222	 0.0
1.62222 0	 0.0
1.64444 0	 0.0
1.64444 0.0222222	 0.0
1.62222 0.0222222	 0.0
1.64444 0	 0.0
1.66667 0	 0.0
1.66667 0.0222222	 0.0
1.64444 0.0222222	 0.0
1.66667 0	 0.0
1.68889 0	 0.0
1.68889 0.0222222	 0.0
1.66667 0.0222222	 0.0
1.68889 0	 0.0
1.71111 0	 0.0
1.71111 0.0222222	 0.0
1.68889 0.0222222	 0.0
1.71111 0	 0.0
1.73333 0	 0.0
1.73333 0.0222222	 0.0
1.71111 0.0222222	 0.0
1.73333 0	 0.0
1.75556 0	 0.0
1.75556 0.0222222	 0.0
1.73333 0.0222222	 0.0
1.75556 0	 0.0
1.77778 0	 0.0
1.77778 0.0222222	 0.0
1.75556 0.0222222	 0.0
1.77778 0	 0.0
1.8 0	 0.0
1.8 0.0222222	 0.0
1.77778 0.0222222	 0.0
1.8 0	 0.0
1.82222 0	 0.0
1.82222 0.0222222	 0.0
1.8 0.0222222	 0.0
1.82222 0	 0.0
1.84444 0	 0.0
1.84444 0.0222222	 0.0
1.82222 0.0222222	 0.0
1.84444 0	 0.0
1.86667 0	 0.0
1.86667 0.0222222	 0.0
1.84444 0.0222222	 0.0
1.86667 0	 0.0
1.88889 0	 0.0
1.88889 0.0222222	 0.0
1.86667 0.0222222	 0.0
1.88889 0	 0.0
1.91111 0	 0.0
1.91111 0.0222222	 0.0
1.88889 0.0222222	 0.0
1.91111 0	 0.0
1.93333 0	 0.0
1.93333 0.0222222	 0.0
1.91111 0.0222222	 0.0
1.93333 0	 0.0
1.95556 0	 0.0
1.95556 0.0222222	 0.0
1.93333 0.0222222	 0.0
1.95556 0	 0.0
1.97778 0	 0.0
1.97778 0.0222222	 0.0
1.95556 0.0222222	 0.0
1.97778 0	 0.0
2 0	 0.0
2 0.0222222	 0.0
1.97778 0.0222222	 0.0
2 0	 0.0
2.02222 0	 0.0
2.02222 0.0222222	 0.0
2 0.0222222	 0.0
2.02222 0	 0.0
2.04444 0	 0.0
2.04444 0.0222222	 0.0
2.02222 0.0222222	 0.0
2.04444 0	 0.0
2.06667 0	 0.0
2.06667 0.0222222	 0.0
2.04444 0.0222222	 0.0
2.06667 0	 0.0
2.08889 0	 0.0
2.08889 0.0222222	 0.0
2.06667 0.0222222	 0.0
2.08889 0	 0.0
2.11111 0	 0.0
2.11111 0.0222222	 0.0
2.08889 0.0222222	 0.0
2.11111 0	 0.0
2.13333 0	 0.0
2.13333 0.0222222	 0.0
2.11111 0.0222222	 0.0
2.13333 0	 0.0
2.15556 0	 0.0
2.15556 0.0222222	 0.0
2.13333 0.0222222	 0.0
2.15556 0	 0.0
2.17778 0	 0.0
2.17778 0.0222222	 0.0
2.15556 0.0222222	 0.0
2.17778 0	 0.0
2.2 0	 0.0
2.2 0.0222222	 0.0
2.17778 0.0222222	 0.0
2.2 0	 0.0
2.22222 0	 0.0
2.22222 0.0222222	 0.0
2.2 0.0222222	 0.0
2.22222 0	 0.0
2.24444 0	 0.0
2.24444 0.0222222	 0.0
2.22222 0.0222222	 0.0
2.24444 0	 0.0
2.26667 0	 0.0
2.26667 0.0222222	 0.0
2.24444 0.0222222	 0.0
2.26667 0	 0.0
2.28889 0	 0.0
2.28889 0.0222222	 0.0
2.26667 0.0222222	 0.0
2.28889 0	 0.0
2.31111 0	 0.0
2.31111 0.0222222	 0.0
2.28889 0.0222222	 0.0
2.31111 0	 0.0
2.33333 0	 0.0
2.33333 0.0222222	 0.0
2.31111 0.0222222	 0.0
2.33333 0	 0.0
2.35556 0	 0.0
2.35556 0.0222222	 0.0
2.33333 0.0222222	 0.0
2.35556 0	 0.0
2.37778 0	 0.0
2.37778 0.0222222	 0.0
2.35556 0.0222222	 0.0
2.37778 0	 0.0
2.4 0	 0.0
2.4 0.0222222	 0.0
2.37778 0.0222222	 0.0
2.4 0	 0.0
2.42222 0	 0.0
2.42222 0.0222222	 0.0
2.4 0.0222222	 0.0
2.42222 0	 0.0
2.44444 0	 0.0
2.44444 0.0222222	 0.0
2.42222 0.0222222	 0.0
2.44444 0	 0.0
2.46667 0	 0.0
2.46667 0.0222222	 0.0
2.44444 0.0222222	 0.0
2.46667 0	 0.0
2.48889 0	 0.0
2.48889 0.0222222	 0.0
2.46667 0.0222222	 0.0
2.48889 0	 0.0
2.51111 0	 0.0
2.51111 0.0222222	 0.0
2.48889 0.0222222	 0.0
2.51111 0	 0.0
2.53333 0	 0.0
2.53333 0.0222222	 0.0
2.51111 0.0222222	 0.0
2.53333 0	 0.0
2.55556 0	 0.0
2.55556 0.0222222	 0.0
2.53333 0.0222222	 0.0
2.55556 0	 0.0
2.57778 0	 0.0
2.57778 0.0222222	 0.0
2.55556 0.0222222	 0.0
2.57778 0	 0.0
2.6 0	 0.0
2.6 0.0222222	 0.0
2.57778 0.0222222	 0.0
2.6 0	 0.0
2.62222 0	 0.0
2.62222 0.0222222	 0.0
2.6 0.0222222	 0.0
2.62222 0	 0.0
2.64444 0	 0.0
2.64444 0.0222222	 0.0
2.62222 0.0222222	 0.0
2.64444 0	 0.0
2.66667 0	 0.0
2.66667 0.0222222	 0.0
2.64444 0.0222222	 0.0
2.66667 0	 0.0
2.68889 0	 0.0
2.68889 0.0222222	 0.0
2.66667 0.0222222	 0.0
2.68889 0	 0.0
2.71111 0	 0.0
2.71111 0.0222222	 0.0
2.68889 0.0222222	 0.0
2.71111 0	 0.0
2.73333 0	 0.0
2.73333 0.0222222	 0.0
2.71111 0.0222222	 0.0
2.73333 0	 0.0
2.75556 0	 0.0
2.75556 0.0222222	 0.0
2.73333 0.0222222	 0.0
2.75556 0	 0.0
2.77778 0	 0.0
2.77778 0.0222222	 0.0
2.75556 0.0222222	 0.0
2.77778 0	 0.0
2.8 0	 0.0
2.8 0.0222222	 0.0
2.77778 0.0222222	 0.0
2.8 0	 0.0
2.82222 0	 0.0
2.82222 0.0222222	 0.0
2.8 0.0222222	 0.0
2.82222 0	 0.0
2.84444 0	 0.0
2.84444 0.0222222	 0.0
2.82222 0.0222222	 0.0
2.84444 0	 0.0
2.86667 0	 0.0
2.86667 0.0222222	 0.0
2.84444 0.0222222	 0.0
2.86667 0	 0.0
2.88889 0	 0.0
2.88889 0.0222222	 0.0
2.86667 0.0222222	 0.0
2.88889 0	 0.0
2.91111 0	 0.0
2.91111 0.0222222	 0.0
2.88889 0.0222222	 0.0
2.91111 0	 0.0
[...]
POINT_DATA 23440
SCALARS levelset_first float
LOOKUP_TABLE default
-2.333
-2.27044
-2.24427
-2.30683
-2.27044
-2.20886
-2.18269
-2.24427
-2.20886
-2.14827
-2.1221
-2.18269
-2.14827
-2.08867
-2.0625
-2.1221
-2.08867
-2.03006
-2.00389
-2.0625
-2.03006
-1.97243
-1.94626
-2.00389
-1.97243
-1.9158
-1.88962
-1.94626
-1.9158
-1.86014
-1.83397
-1.88962
-1.86014
-1.80548
-1.77931
-1.83397
-1.80548
-1.75181
-1.72563
-1.77931
-1.75181
-1.69912
-1.67295
-1.72563
-1.69912
-1.64742
-1.62125
-1.67295
-1.64742
-1.59671
-1.57053
-1.62125
-1.59671
-1.54698
-1.52081
-1.57053
-1.54698
-1.49825
-1.47207
-1.52081
-1.49825
-1.4505
-1.42432
-1.47207
-1.4505
-1.40373
-1.37756
-1.42432
-1.40373
-1.35796
-1.33179
-1.37756
-1.35796
-1.31317
-1.287
-1.33179
-1.31317
-1.26938
-1.2432
-1.287
-1.26938
-1.22656
-1.20039
-1.2432
-1.22656
-1.18474
-1.15857
-1.20039
-1.18474
-1.14391
-1.11773
-1.15857
-1.14391
-1.10406
-1.07788
-1.11773
-1.10406
-1.0652
-1.03902
-1.07788
-1.0652
-1.02732
-1.00115
-1.03902
-1.02732
-0.990439
-0.964266
-1.00115
-0.990439
-0.954542
-0.928369
-0.964266
-0.954542
-0.919632
-0.893459
-0.928369
-0.919632
-0.88571
-0.859537
-0.893459
-0.88571
-0.852775
-0.826602
-0.859537
-0.852775
-0.820828
-0.794656
-0.826602
-0.820828
-0.789869
-0.763696
-0.794656
-0.789869
-0.759898
-0.733725
-0.763696
-0.759898
-0.730914
-0.704741
-0.733725
-0.730914
-0.702918
-0.676745
-0.704741
-0.702918
-0.675909
-0.649736
-0.676745
-0.675909
-0.649888
-0.623715
-0.649736
-0.649888
-0.624855
-0.598682
-0.623715
-0.624855
-0.600809
-0.574637
-0.598682
-0.600809
-0.577752
-0.551579
-0.574637
-0.577752
-0.555681
-0.529508
-0.551579
-0.555681
-0.534599
-0.508426
-0.529508
-0.534599
-0.514504
-0.488331
-0.508426
-0.514504
-0.495396
-0.469223
-0.488331
-0.495396
-0.477277
-0.451104
-0.469223
-0.477277
-0.460145
-0.433972
-0.451104
-0.460145
-0.444
-0.417827
-0.433972
-0.444
-0.428844
-0.402671
-0.417827
-0.428844
-0.414675
-0.388502
-0.402671
-0.414675
-0.401493
-0.37532
-0.388502
-0.401493
-0.389299
-0.363127
-0.37532
-0.389299
-0.378093
-0.351921
-0.363127
-0.378093
-0.367875
-0.341702
-0.351921
-0.367875
-0.358644
-0.332471
-0.341702
-0.358644
-0.350401
-0.324228
-0.332471
-0.350401
-0.343146
-0.316973
-0.324228
-0.343146
-0.336878
-0.310705
-0.316973
-0.336878
-0.331598
-0.305425
-0.310705
-0.331598
-0.327305
-0.301132
-0.305425
-0.327305
-0.324
-0.297827
-0.301132
-0.324
-0.321683
-0.29551
-0.297827
-0.321683
-0.320354
-0.294181
-0.29551
-0.320354
-0.320012
-0.293839
-0.294181
-0.320012
-0.320657
-0.294485
-0.293839
-0.320657
-0.322291
-0.296118
-0.294485
-0.322291
-0.324912
-0.298739
-0.296118
-0.324912
-0.328521
-0.302348
-0.298739
-0.328521
-0.333117
-0.306944
-0.302348
-0.333117
-0.338701
-0.312528
-0.306944
-0.338701
-0.345273
-0.3191
-0.312528
-0.345273
-0.352832
-0.326659
-0.3191
-0.352832
-0.361379
-0.335206
-0.326659
-0.361379
-0.370914
-0.344741
-0.335206
-0.370914
-0.381436
-0.355263
-0.344741
-0.381436
-0.392946
-0.366773
-0.355263
-0.392946
-0.405444
-0.379271
-0.366773
-0.405444
-0.418929
-0.392756
-0.379271
-0.418929
-0.433402
-0.407229
-0.392756
-0.433402
-0.448863
-0.42269
-0.407229
-0.448863
-0.465311
-0.439138
-0.42269
-0.465311
-0.482747
-0.456574
-0.439138
-0.482747
-0.50117
-0.474997
-0.456574
-0.50117
-0.520581
-0.494409
-0.474997
-0.520581
-0.54098
-0.514807
-0.494409
-0.54098
-0.562367
-0.536194
-0.514807
-0.562367
-0.584741
-0.558568
-0.536194
-0.584741
-0.608103
-0.58193
-0.558568
-0.608103
-0.632452
-0.606279
-0.58193
-0.632452
-0.657789
-0.631617
-0.606279
-0.657789
-0.684114
-0.657941
-0.631617
-0.684114
-0.711427
-0.685254
-0.657941
-0.711427
-0.739727
-0.713554
-0.685254
-0.739727
-0.769015
-0.742842
-0.713554
-0.769015
-0.79929
-0.773117
-0.742842
-0.79929
-0.830553
-0.80438
-0.773117
-0.830553
-0.862804
-0.836631
-0.80438
-0.862804
-0.896042
-0.869869
-0.836631
-0.896042
-0.930268
-0.904095
-0.869869
-0.930268
-0.965482
-0.939309
-0.904095
-0.965482
-1.00168
-0.97551
-0.939309
-1.00168
-1.03887
-1.0127
-0.97551
-1.03887
-1.07705
-1.05088
-1.0127
-1.07705
-1.11621
-1.09004
-1.05088
-1.11621
-1.15636
-1.13019
-1.09004
-1.15636
-1.1975
-1.17133
-1.13019
-1.1975
-1.23963
-1.21346
-1.17133
-1.23963
-1.28275
-1.25657
-1.21346
-1.28275
-1.32685
-1.30068
-1.25657
-1.32685
-1.37194
-1.34577
-1.30068
-1.37194
-1.41802
-1.39184
-1.34577
-1.41802
-1.46508
-1.43891
-1.39184
-1.46508
-1.51314
-1.48696
-1.43891
-1.51314
-1.56218
-1.536
-1.48696
-1.56218
-1.61221
-1.58603
-1.536
-1.61221
-1.66322
-1.63705
-1.58603
-1.66322
-1.71523
-1.68905
-1.63705
-1.71523
-1.76822
-1.74204
-1.68905
-1.76822
-1.8222
-1.79602
-1.74204
-1.8222
-1.87716
-1.85099
-1.79602
-1.87716
-1.93312
-1.90694
-1.85099
-1.93312
-1.99006
-1.96389
-1.90694
-1.99006
-2.04799
-2.02182
-1.96389
-2.04799
-2.10691
-2.08073
-2.02182
-2.10691
-2.16681
-2.14064
-2.08073
-2.16681
-2.2277
-2.20153
-2.14064
-2.2277
-2.28958
-2.26341
-2.20153
-2.28958
-2.35245
-2.32628
-2.26341
-2.35245
-2.41631
-2.39014
-2.32628
-2.41631
-2.48115
-2.45498
-2.39014
-2.48115
-2.54698
-2.52081
-2.45498
-2.54698
-2.6138
-2.58763
-2.52081
-2.6138
-2.68161
-2.65543
-2.58763
-2.68161
-2.7504
-2.72423
-2.65543
-2.7504
-2.82018
-2.79401
-2.72423
-2.30683
-2.24427
-2.21908
-2.28165
-2.24427
-2.18269
-2.1575
-2.21908
-2.18269
-2.1221
-2.09692
-2.1575
-2.1221
-2.0625
-2.03731
-2.09692
-2.0625
-2.00389
-1.9787
-2.03731
-2.00389
-1.94626
-1.92108
-1.9787
-1.94626
-1.88962
-1.86444
-1.92108
-1.88962
-1.83397
-1.80879
-1.86444
-1.83397
-1.77931
-1.75412
-1.80879
-1.77931
-1.72563
-1.70045
-1.75412
-1.72563
-1.67295
-1.64776
-1.70045
-1.67295
-1.62125
-1.59606
-1.64776
-1.62125
-1.57053
-1.54535
-1.59606
-1.57053
-1.52081
-1.49562
-1.54535
-1.52081
-1.47207
-1.44689
-1.49562
-1.47207
-1.42432
-1.39914
-1.44689
-1.42432
-1.37756
-1.35238
-1.39914
-1.37756
-1.33179
-1.3066
-1.35238
-1.33179
-1.287
-1.26182
-1.3066
-1.287
-1.2432
-1.21802
-1.26182
-1.2432
-1.20039
-1.17521
-1.21802
-1.20039
-1.15857
-1.13338
-1.17521
-1.15857
-1.11773
-1.09255
-1.13338
-1.11773
-1.07788
-1.0527
-1.09255
-1.07788
-1.03902
-1.01384
-1.0527
-1.03902
-1.00115
-0.975966
-1.01384
-1.00115
-0.964266
-0.939081
-0.975966
-0.964266
-0.928369
-0.903184
-0.939081
-0.928369
-0.893459
-0.868274
-0.903184
-0.893459
-0.859537
-0.834352
-0.868274
-0.859537
-0.826602
-0.801417
-0.834352
-0.826602
-0.794656
-0.76947
-0.801417
-0.794656
-0.763696
-0.738511
-0.76947
-0.763696
-0.733725
-0.70854
-0.738511
-0.733725
-0.704741
-0.679556
-0.70854
-0.704741
-0.676745
-0.65156
-0.679556
-0.676745
-0.649736
-0.624551
-0.65156
-0.649736
-0.623715
-0.59853
-0.624551
-0.623715
-0.598682
-0.573497
-0.59853
-0.598682
-0.574637
-0.549451
-0.573497
-0.574637
-0.551579
-0.526393
-0.549451
-0.551579
-0.529508
-0.504323
-0.526393
-0.529508
-0.508426
-0.483241
-0.504323
-0.508426
-0.488331
-0.463146
-0.483241
-0.488331
-0.469223
-0.444038
-0.463146
-0.469223
-0.451104
-0.425919
-0.444038
-0.451104
-0.433972
-0.408787
-0.425919
-0.433972
-0.417827
-0.392642
-0.408787
-0.417827
-0.402671
-0.377486
-0.392642
-0.402671
-0.388502
-0.363317
-0.377486
-0.388502
-0.37532
-0.350135
-0.363317
-0.37532
-0.363127
-0.337941
-0.350135
-0.363127
-0.351921
-0.326735
-0.337941
-0.351921
-0.341702
-0.316517
-0.326735
-0.341702
-0.332471
-0.307286
-0.316517
-0.332471
-0.324228
-0.299043
-0.307286
-0.324228
-0.316973
-0.291788
-0.299043
-0.316973
-0.310705
-0.28552
-0.291788
-0.310705
-0.305425
-0.28024
-0.28552
-0.305425
-0.301132
-0.275947
-0.28024
-0.301132
-0.297827
-0.272642
-0.275947
-0.297827
-0.29551
-0.270325
-0.272642
-0.29551
-0.294181
-0.268996
-0.270325
-0.294181
-0.293839
-0.268654
-0.268996
-0.293839
-0.294485
-0.269299
-0.268654
-0.294485
-0.296118
-0.270933
-0.269299
-0.296118
-0.298739
-0.273554
-0.270933
-0.298739
-0.302348
-0.277163
-0.273554
-0.302348
-0.306944
-0.281759
-0.277163
-0.306944
-0.312528
-0.287343
-0.281759
-0.312528
-0.3191
-0.293915
-0.287343
-0.3191
-0.326659
-0.301474
-0.293915
-0.326659
-0.335206
-0.310021
-0.301474
-0.335206
-0.344741
-0.319556
-0.310021
-0.344741
-0.355263
-0.330078
-0.319556
-0.355263
-0.366773
-0.341588
-0.330078
-0.366773
-0.379271
-0.354086
-0.341588
-0.379271
-0.392756
-0.367571
-0.354086
-0.392756
-0.407229
-0.382044
-0.367571
-0.407229
-0.42269
-0.397505
-0.382044
-0.42269
-0.439138
-0.413953
-0.397505
-0.439138
-0.456574
-0.431389
-0.413953
-0.456574
-0.474997
-0.449812
-0.431389
-0.474997
-0.494409
-0.469223
-0.449812
-0.494409
-0.514807
-0.489622
-0.469223
-0.514807
-0.536194
-0.511009
-0.489622
-0.536194
-0.558568
-0.533383
-0.511009
-0.558568
-0.58193
-0.556745
-0.533383
-0.58193
-0.606279
-0.581094
-0.556745
-0.606279
-0.631617
-0.606431
-0.581094
-0.631617
-0.657941
-0.632756
-0.606431
-0.657941
-0.685254
-0.660069
-0.632756
-0.685254
-0.713554
-0.688369
-0.660069
-0.713554
-0.742842
-0.717656
-0.688369
-0.742842
-0.773117
-0.747932
-0.717656
-0.773117
-0.80438
-0.779195
-0.747932
-0.80438
-0.836631
-0.811446
-0.779195
-0.836631
-0.869869
-0.844684
-0.811446
-0.869869
-0.904095
-0.87891
-0.844684
-0.904095
-0.939309
-0.914124
-0.87891
-0.939309
-0.97551
-0.950325
-0.914124
-0.97551
-1.0127
-0.987514
-0.950325
-1.0127
-1.05088
-1.02569
-0.987514
-1.05088
-1.09004
-1.06485
-1.02569
-1.09004
-1.13019
-1.10501
-1.06485
-1.13019
-1.17133
-1.14615
-1.10501
-1.17133
-1.21346
-1.18827
-1.14615
-1.21346
-1.25657
-1.23139
-1.18827
-1.25657
-1.30068
-1.27549
-1.23139
-1.30068
-1.34577
-1.32058
-1.27549
-1.34577
-1.39184
-1.36666
-1.32058
-1.39184
-1.43891
-1.41372
-1.36666
-1.43891
-1.48696
-1.46178
-1.41372
-1.48696
-1.536
-1.51082
-1.46178
-1.536
-1.58603
-1.56085
-1.51082
-1.58603
-1.63705
-1.61186
-1.56085
-1.63705
-1.68905
-1.66387
-1.61186
-1.68905
-1.74204
-1.71686
-1.66387
-1.74204
-1.79602
-1.77084
-1.71686
-1.79602
-1.85099
-1.8258
-1.77084
-1.85099
-1.90694
-1.88176
-1.8258
-1.90694
-1.96389
-1.9387
-1.88176
-1.96389
-2.02182
-1.99663
-1.9387
-2.02182
-2.08073
-2.05555
-1.99663
-2.08073
-2.14064
-2.11545
-2.05555
-2.14064
-2.20153
-2.17635
-2.11545
-2.20153
-2.26341
-2.23823
-2.17635
-2.26341
-2.32628
-2.30109
-2.23823
-2.32628
-2.39014
-2.36495
-2.30109
-2.39014
-2.45498
-2.42979
-2.36495
-2.45498
-2.52081
-2.49562
-2.42979
-2.52081
-2.58763
-2.56244
-2.49562
-2.58763
-2.65543
-2.63025
-2.56244
-2.65543
-2.72423
-2.69904
-2.63025
-2.72423
-2.79401
-2.76882
-2.69904
-2.28165
-2.21908
-2.19488
-2.25745
-2.21908
-2.1575
-2.13331
-2.19488
-2.1575
-2.09692
-2.07272
-2.13331
-2.09692
-2.03731
-2.01312
-2.07272
-2.03731
-1.9787
-1.9545
-2.01312
-1.9787
-1.92108
-1.89688
-1.9545
-1.92108
-1.86444
-1.84024
-1.89688
-1.86444
-1.80879
-1.78459
-1.84024
-1.80879
-1.75412
-1.72993
-1.78459
-1.75412
-1.70045
-1.67625
-1.72993
-1.70045
-1.64776
-1.62356
-1.67625
-1.64776
-1.59606
-1.57186
-1.62356
-1.59606
-1.54535
-1.52115
-1.57186
-1.54535
-1.49562
-1.47143
-1.52115
-1.49562
-1.44689
-1.42269
-1.47143
-1.44689
-1.39914
-1.37494
-1.42269
-1.39914
-1.35238
-1.32818
-1.37494
-1.35238
-1.3066
-1.2824
-1.32818
-1.3066
-1.26182
-1.23762
-1.2824
-1.26182
-1.21802
-1.19382
-1.23762
-1.21802
-1.17521
-1.15101
-1.19382
-1.17521
-1.13338
-1.10919
-1.15101
-1.13338
-1.09255
-1.06835
-1.10919
-1.09255
-1.0527
-1.0285
-1.06835
-1.0527
-1.01384
-0.989641
-1.0285
-1.01384
-0.975966
-0.951769
-0.989641
-0.975966
-0.939081
-0.914884
-0.951769
-0.939081
-0.903184
-0.878986
-0.914884
-0.903184
-0.868274
-0.844076
-0.878986
-0.868274
-0.834352
-0.810154
-0.844076
-0.834352
-0.801417
-0.77722
-0.810154
-0.801417
-0.76947
-0.745273
-0.77722
-0.76947
-0.738511
-0.714314
-0.745273
-0.738511
-0.70854
-0.684342
-0.714314
-0.70854
-0.679556
-0.655358
-0.684342
-0.679556
-0.65156
-0.627362
-0.655358
-0.65156
-0.624551
-0.600354
-0.627362
-0.624551
-0.59853
-0.574333
-0.600354
-0.59853
-0.573497
-0.549299
-0.574333
-0.573497
-0.549451
-0.525254
-0.549299
-0.549451
-0.526393
-0.502196
-0.525254
-0.526393
-0.504323
-0.480126
-0.502196
-0.504323
-0.483241
-0.459043
-0.480126
-0.483241
-0.463146
-0.438948
-0.459043
-0.463146
-0.444038
-0.419841
-0.438948
-0.444038
-0.425919
-0.401721
-0.419841
-0.425919
-0.408787
-0.384589
-0.401721
-0.408787
-0.392642
-0.368445
-0.384589
-0.392642
-0.377486
-0.353288
-0.368445
-0.377486
-0.363317
-0.339119
-0.353288
-0.363317
-0.350135
-0.325938
-0.339119
-0.350135
-0.337941
-0.313744
-0.325938
-0.337941
-0.326735
-0.302538
-0.313744
-0.326735
-0.316517
-0.292319
-0.302538
-0.316517
-0.307286
-0.283089
-0.292319
-0.307286
-0.299043
-0.274846
-0.283089
-0.299043
-0.291788
-0.26759
-0.274846
-0.291788
-0.28552
-0.261322
-0.26759
-0.28552
-0.28024
-0.256042
-0.261322
-0.28024
-0.275947
-0.25175
-0.256042
-0.275947
-0.272642
-0.248445
-0.25175
-0.272642
-0.270325
-0.246128
-0.248445
-0.270325
-0.268996
-0.244798
-0.246128
-0.268996
-0.268654
-0.244456
-0.244798
-0.268654
-0.269299
-0.245102
-0.244456
-0.269299
-0.270933
-0.246735
-0.245102
-0.270933
-0.273554
-0.249356
-0.246735
-0.273554
-0.277163
-0.252965
-0.249356
-0.277163
-0.281759
-0.257562
-0.252965
-0.281759
-0.287343
-0.263146
-0.257562
-0.287343
-0.293915
-0.269717
-0.263146
-0.293915
-0.301474
-0.277277
-0.269717
-0.301474
-0.310021
-0.285824
-0.277277
-0.310021
-0.319556
-0.295358
-0.285824
-0.319556
-0.330078
-0.305881
-0.295358
-0.330078
-0.341588
-0.317391
-0.305881
-0.341588
-0.354086
-0.329888
-0.317391
-0.354086
-0.367571
-0.343373
-0.329888
-0.367571
-0.382044
-0.357846
-0.343373
-0.382044
-0.397505
-0.373307
-0.357846
-0.397505
-0.413953
-0.389755
-0.373307
-0.413953
-0.431389
-0.407191
-0.389755
-0.431389
-0.449812
-0.425615
-0.407191
-0.449812
-0.469223
-0.445026
-0.425615
-0.469223
-0.489622
-0.465425
-0.445026
-0.489622
-0.511009
-0.486811
-0.465425
-0.511009
-0.533383
-0.509185
-0.486811
-0.533383
-0.556745
-0.532547
-0.509185
-0.556745
-0.581094
-0.556897
-0.532547
-0.581094
-0.606431
-0.582234
-0.556897
-0.606431
-0.632756
-0.608559
-0.582234
-0.632756
-0.660069
-0.635871
-0.608559
-0.660069
-0.688369
-0.664171
-0.635871
-0.688369
-0.717656
-0.693459
-0.664171
-0.717656
-0.747932
-0.723734
-0.693459
-0.747932
-0.779195
-0.754997
-0.723734
-0.779195
-0.811446
-0.787248
-0.754997
-0.811446
-0.844684
-0.820486
-0.787248
-0.844684
-0.87891
-0.854713
-0.820486
-0.87891
-0.914124
-0.889926
-0.854713
-0.914124
-0.950325
-0.926128
-0.889926
-0.950325
-0.987514
-0.963316
-0.926128
-0.987514
-1.02569
-1.00149
-0.963316
-1.02569
-1.06485
-1.04066
-1.00149
-1.06485
-1.10501
-1.08081
-1.04066
-1.10501
-1.14615
-1.12195
-1.08081
-1.14615
-1.18827
-1.16408
-1.12195
-1.18827
-1.23139
-1.20719
-1.16408
-1.23139
-1.27549
-1.25129
-1.20719
-1.27549
-1.32058
-1.29638
-1.25129
-1.32058
-1.36666
-1.34246
-1.29638
-1.36666
-1.41372
-1.38953
-1.34246
-1.41372
-1.46178
-1.43758
-1.38953
-1.46178
-1.51082
-1.48662
-1.43758
-1.51082
-1.56085
-1.53665
-1.48662
-1.56085
-1.61186
-1.58767
-1.53665
-1.61186
-1.66387
-1.63967
-1.58767
-1.66387
-1.71686
-1.69266
-1.63967
-1.71686
-1.77084
-1.74664
-1.69266
-1.77084
-1.8258
-1.80161
-1.74664
-1.8258
-1.88176
-1.85756
-1.80161
-1.88176
-1.9387
-1.9145
-1.85756
-1.9387
-1.99663
-1.97243
-1.9145
-1.99663
-2.05555
-2.03135
-1.97243
-2.05555
-2.11545
-2.09126
-2.03135
-2.11545
-2.17635
-2.15215
-2.09126
-2.17635
-2.23823
-2.21403
-2.15215
-2.23823
-2.30109
-2.2769
-2.21403
-2.30109
-2.36495
-2.34075
-2.2769
-2.36495
-2.42979
-2.4056
-2.34075
-2.42979
-2.49562
-2.47143
-2.4056
-2.49562
-2.56244
-2.53825
-2.47143
-2.56244
-2.63025
-2.60605
-2.53825
-2.63025
-2.69904
-2.67485
-2.60605
-2.69904
-2.76882
-2.74463
-2.67485
-2.25745
-2.19488
-2.17167
-2.23424
-2.19488
-2.13331
-2.1101
-2.17167
-2.13331
-2.07272
-2.04951
-2.1101
-2.07272
-2.01312
-1.98991
-2.04951
-2.01312
-1.9545
-1.93129
-1.98991
-1.9545
-1.89688
-1.87367
-1.93129
-1.89688
-1.84024
-1.81703
-1.87367
-1.84024
-1.78459
-1.76138
-1.81703
-1.78459
-1.72993
-1.70672
-1.76138
-1.72993
-1.67625
-1.65304
-1.70672
-1.67625
-1.62356
-1.60035
-1.65304
-1.62356
-1.57186
-1.54865
-1.60035
-1.57186
-1.52115
-1.49794
-1.54865
-1.52115
-1.47143
-1.44822
-1.49794
-1.47143
-1.42269
-1.39948
-1.44822
-1.42269
-1.37494
-1.35173
-1.39948
-1.37494
-1.32818
-1.30497
-1.35173
-1.32818
-1.2824
-1.2592
-1.30497
-1.2824
-1.23762
-1.21441
-1.2592
-1.23762
-1.19382
-1.17061
-1.21441
-1.19382
-1.15101
-1.1278
-1.17061
-1.15101
-1.10919
-1.08598
-1.1278
-1.10919
-1.06835
-1.04514
-1.08598
-1.06835
-1.0285
-1.00529
-1.04514
-1.0285
-0.989641
-0.966431
-1.00529
-0.989641
-0.951769
-0.928559
-0.966431
-0.951769
-0.914884
-0.891674
-0.928559
-0.914884
-0.878986
-0.855776
-0.891674
-0.878986
-0.844076
-0.820866
-0.855776
-0.844076
-0.810154
-0.786944
-0.820866
-0.810154
-0.77722
-0.75401
-0.786944
-0.77722
-0.745273
-0.722063
-0.75401
-0.745273
-0.714314
-0.691104
-0.722063
-0.714314
-0.684342
-0.661132
-0.691104
-0.684342
-0.655358
-0.632148
-0.661132
-0.655358
-0.627362
-0.604152
-0.632148
-0.627362
-0.600354
-0.577144
-0.604152
-0.600354
-0.574333
-0.551123
-0.577144
-0.574333
-0.549299
-0.52609
-0.551123
-0.549299
-0.525254
-0.502044
-0.52609
-0.525254
-0.502196
-0.478986
-0.502044
-0.502196
-0.480126
-0.456916
-0.478986
-0.480126
-0.459043
-0.435833
-0.456916
-0.459043
-0.438948
-0.415738
-0.435833
-0.438948
-0.419841
-0.396631
-0.415738
-0.419841
-0.401721
-0.378511
-0.396631
-0.401721
-0.384589
-0.361379
-0.378511
-0.384589
-0.368445
-0.345235
-0.361379
-0.368445
-0.353288
-0.330078
-0.345235
-0.353288
-0.339119
-0.315909
-0.330078
-0.339119
-0.325938
-0.302728
-0.315909
-0.325938
-0.313744
-0.290534
-0.302728
-0.313744
-0.302538
-0.279328
-0.290534
-0.302538
-0.292319
-0.26911
-0.279328
-0.292319
-0.283089
-0.259879
-0.26911
-0.283089
-0.274846
-0.251636
-0.259879
-0.274846
-0.26759
-0.24438
-0.251636
-0.26759
-0.261322
-0.238112
-0.24438
-0.261322
-0.256042
-0.232832
-0.238112
-0.256042
-0.25175
-0.22854
-0.232832
-0.25175
-0.248445
-0.225235
-0.22854
-0.248445
-0.246128
-0.222918
-0.225235
-0.246128
-0.244798
-0.221588
-0.222918
-0.244798
-0.244456
-0.221246
-0.221588
-0.244456
-0.245102
-0.221892
-0.221246
-0.245102
-0.246735
-0.223525
-0.221892
-0.246735
-0.249356
-0.226147
-0.223525
-0.249356
-0.252965
-0.229755
-0.226147
-0.252965
-0.257562
-0.234352
-0.229755
-0.257562
-0.263146
-0.239936
-0.234352
-0.263146
-0.269717
-0.246507
-0.239936
-0.269717
-0.277277
-0.254067
-0.246507
-0.277277
-0.285824
-0.262614
-0.254067
-0.285824
-0.295358
-0.272148
-0.262614
-0.295358
-0.305881
-0.282671
-0.272148
-0.305881
-0.317391
-0.294181
-0.282671
-0.317391
-0.329888
-0.306678
-0.294181
-0.329888
-0.343373
-0.320164
-0.306678
-0.343373
-0.357846
-0.334637
-0.320164
-0.357846
-0.373307
-0.350097
-0.334637
-0.373307
-0.389755
-0.366545
-0.350097
-0.389755
-0.407191
-0.383981
-0.366545
-0.407191
-0.425615
-0.402405
-0.383981
-0.425615
-0.445026
-0.421816
-0.402405
-0.445026
-0.465425
-0.442215
-0.421816
-0.465425
-0.486811
-0.463601
-0.442215
-0.486811
-0.509185
-0.485976
-0.463601
-0.509185
-0.532547
-0.509337
-0.485976
-0.532547
-0.556897
-0.533687
-0.509337
-0.556897
-0.582234
-0.559024
-0.533687
-0.582234
-0.608559
-0.585349
-0.559024
-0.608559
-0.635871
-0.612661
-0.585349
-0.635871
-0.664171
-0.640961
-0.612661
-0.664171
-0.693459
-0.670249
-0.640961
-0.693459
-0.723734
-0.700524
-0.670249
-0.723734
-0.754997
-0.731788
-0.700524
-0.754997
-0.787248
-0.764038
-0.731788
-0.787248
-0.820486
-0.797277
-0.764038
-0.820486
-0.854713
-0.831503
-0.797277
-0.854713
-0.889926
-0.866716
-0.831503
-0.889926
-0.926128
-0.902918
-0.866716
-0.926128
-0.963316
-0.940107
-0.902918
-0.963316
-1.00149
-0.978283
-0.940107
-1.00149
-1.04066
-1.01745
-0.978283
-1.04066
-1.08081
-1.0576
-1.01745
-1.08081
-1.12195
-1.09874
-1.0576
-1.12195
-1.16408
-1.14087
-1.09874
-1.16408
-1.20719
-1.18398
-1.14087
-1.20719
-1.25129
-1.22808
-1.18398
-1.25129
-1.29638
-1.27317
-1.22808
-1.29638
-1.34246
-1.31925
-1.27317
-1.34246
-1.38953
-1.36632
-1.31925
-1.38953
-1.43758
-1.41437
-1.36632
-1.43758
-1.48662
-1.46341
-1.41437
-1.48662
-1.53665
-1.51344
-1.46341
-1.53665
-1.58767
-1.56446
-1.51344
-1.58767
-1.63967
-1.61646
-1.56446
-1.63967
-1.69266
-1.66945
-1.61646
-1.69266
-1.74664
-1.72343
-1.66945
-1.74664
-1.80161
-1.7784
-1.72343
-1.80161