# vtk DataFile Version 1.0
unstructured Grid
ASCII
DATASET UNSTRUCTURED_GRID
POINTS 23424 float 
0 0	 0.0
0.0222222 0	 0.0
0.0222222 0.0222222	 0.0
0 0.0222222	 0.0
0.0222222 0	 0.0
0.0444444 0	 0.0
0.0444444 0.0222222	 0.0
0.0222222 0.0222222	 0.0
0.0444444 0	 0.0
0.0666667 0	 0.0
0.0666667 0.0222222	 0.0
0.0444444 0.0222222	 0.0
0.0666667 0	 0.0
0.0888889 0	 0.0
0.0888889 0.0222222	 0.0
0.0666667 0.0222222	 0.0
0.0888889 0	 0.0
0.111111 0	 0.0
0.111111 0.0222222	 0.0
0.0888889 0.0222222	 0.0
0.111111 0	 0.0
0.133333 0	 0.0
0.133333 0.0222222	 0.0
0.111111 0.0222222	 0.0
0.133333 0	 0.0
0.155556 0	 0.0
0.155556 0.0222222	 0.0
0.133333 0.0222222	 0.0
0.155556 0	 0.0
0.177778 0	 0.0
0.177778 0.0222222	 0.0
0.155556 0.0222222	 0.0
0.177778 0	 0.0
0.2 0	 0.0
0.2 0.0222222	 0.0
0.177778 0.0222222	 0.0
0.2 0	 0.0
0.222222 0	 0.0
0.222222 0.0222222	 0.0
0.2 0.0222222	 0.0
0.222222 0	 0.0
0.244444 0	 0.0
0.244444 0.0222222	 0.0
0.222222 0.0222222	 0.0
0.244444 0	 0.0
0.266667 0	 0.0
0.266667 0.0222222	 0.0
0.244444 0.0222222	 0.0
0.266667 0	 0.0
0.288889 0	 0.0
0.288889 0.0222222	 0.0
0.266667 0.0222222	 0.0
0.288889 0	 0.0
0.311111 0	 0.0
0.311111 0.0222222	 0.0
0.288889 0.0222222	 0.0
0.311111 0	 0.0
0.333333 0	 0.0
0.333333 0.0222222	 0.0
0.311111 0.0222222	 0.0
0.333333 0	 0.0
0.355556 0	 0.0
0.355556 0.0222222	 0.0
0.333333 0.0222222	 0.0
0.355556 0	 0.0
0.377778 0	 0.0
0.377778 0.0222222	 0.0
0.355556 0.0222222	 0.0
0.377778 0	 0.0
0.4 0	 0.0
0.4 0.0222222	 0.0
0.377778 0.0222222	 0.0
0.4 0	 0.0
0.422222 0	 0.0
0.422222 0.0222222	 0.0
0.4 0.0222222	 0.0
0.422222 0	 0.0
0.444444 0	 0.0
0.444444 0.0222222	 0.0
0.422222 0.0222222	 0.0
0.444444 0	 0.0
0.466667 0	 0.0
0.466667 0.0222222	 0.0
0.444444 0.0222222	 0.0
0.466667 0	 0.0
0.488889 0	 0.0
0.488889 0.0222222	 0.0
0.466667 0.0222222	 0.0
0.488889 0	 0.0
0.511111 0	 0.0
0.511111 0.0222222	 0.0
0.488889 0.0222222	 0.0
0.511111 0	 0.0
0.533333 0	 0.0
0.533333 0.0222222	 0.0
0.511111 0.0222222	 0.0
0.533333 0	 0.0
0.555556 0	 0.0
0.555556 0.0222222	 0.0
0.533333 0.0222222	 0.0
0.555556 0	 0.0
0.577778 0	 0.0
0.577778 0.0222222	 0.0
0.555556 0.0222222	 0.0
0.577778 0	 0.0
0.6 0	 0.0
0.6 0.0222222	 0.0
0.577778 0.0222222	 0.0
0.6 0	 0.0
0.622222 0	 0.0
0.622222 0.0222222	 0.0
0.6 0.0222222	 0.0
0.622222 0	 0.0
0.644444 0	 0.0
0.644444 0.0222222	 0.0
0.622222 0.0222222	 0.0
0.644444 0	 0.0
0.666667 0	 0.0
0.666667 0.0222222	 0.0
0.644444 0.0222222	 0.0
0.666667 0	 0.0
0.688889 0	 0.0
0.688889 0.0222222	 0.0
0.666667 0.0222222	 0.0
0.688889 0	 0.0
0.711111 0	 0.0
0.711111 0.0222222	 0.0
0.688889 0.0222222	 0.0
0.711111 0	 0.0
0.733333 0	 0.0
0.733333 0.0222222	 0.0
0.711111 0.0222222	 0.0
0.733333 0	 0.0
0.755556 0	 0.0
0.755556 0.0222222	 0.0
0.733333 0.0222222	 0.0
0.755556 0	 0.0
0.777778 0	 0.0
0.777778 0.0222222	 0.0
0.755556 0.0222222	 0.0
0.777778 0	 0.0
0.8 0	 0.0
0.8 0.0222222	 0.0
0.777778 0.0222222	 0.0
0.8 0	 0.0
0.822222 0	 0.0
0.822222 0.0222222	 0.0
0.8 0.0222222	 0.0
0.822222 0	 0.0
0.844444 0	 0.0
0.844444 0.0222222	 0.0
0.822222 0.0222222	 0.0
0.844444 0	 0.0
0.866667 0	 0.0
0.866667 0.0222222	 0.0
0.844444 0.0222222	 0.0
0.866667 0	 0.0
0.888889 0	 0.0
0.888889 0.0222222	 0.0
0.866667 0.0222222	 0.0
0.888889 0	 0.0
0.911111 0	 0.0
0.911111 0.0222222	 0.0
0.888889 0.0222222	 0.0
0.911111 0	 0.0
0.933333 0	 0.0
0.933333 0.0222222	 0.0
0.911111 0.0222222	 0.0
0.933333 0	 0.0
0.955556 0	 0.0
0.955556 0.0222222	 0.0
0.933333 0.0222222	 0.0
0.955556 0	 0.0
0.977778 0	 0.0
0.977778 0.0222222	 0.0
0.955556 0.0222222	 0.0
0.977778 0	 0.0
1 0	 0.0
1 0.0222222	 0.0
0.977778 0.0222222	 0.0
1 0	 0.0
1.02222 0	 0.0
1.02222 0.0222222	 0.0
1 0.0222222	 0.0
1.02222 0	 0.0
1.04444 0	 0.0
1.04444 0.0222222	 0.0
1.02222 0.0222222	 0.0
1.04444 0	 0.0
1.06667 0	 0.0
1.06667 0.0222222	 0.0
1.04444 0.0222222	 0.0
1.06667 0	 0.0
1.08889 0	 0.0
1.08889 0.0222222	 0.0
1.06667 0.0222222	 0.0
1.08889 0	 0.0
1.11111 0	 0.0
1.11111 0.0222222	 0.0
1.08889 0.0222222	 0.0
1.11111 0	 0.0
1.13333 0	 0.0
1.13333 0.0222222	 0.0
1.11111 0.0222222	 0.0
1.13333 0	 0.0
1.15556 0	 0.0
1.15556 0.0222222	 0.0
1.13333 0.0222222	 0.0
1.15556 0	 0.0
1.17778 0	 0.0
1.17778 0.0222222	 0.0
1.15556 0.0222222	 0.0
1.17778 0	 0.0
1.2 0	 0.0
1.2 0.0222222	 0.0
1.17778 0.0222222	 0.0
1.2 0	 0.0
1.22222 0	 0.0
1.22222 0.0222222	 0.0
1.2 0.0222222	 0.0
1.22222 0	 0.0
1.24444 0	 0.0
1.24444 0.0222222	 0.0
1.22222 0.0222222	 0.0
1.24444 0	 0.0
1.26667 0	 0.0
1.26667 0.0222222	 0.0
1.24444 0.0222222	 0.0
1.26667 0	 0.0
1.28889 0	 0.0
1.28889 0.0222222	 0.0
1.26667 0.0222222	 0.0
1.28889 0	 0.0
1.31111 0	 0.0
1.31111 0.0222222	 0.0
1.28889 0.0222222	 0.0
1.31111 0	 0.0
1.33333 0	 0.0
1.33333 0.0222222	 0.0
1.31111 0.0222222	 0.0
1.33333 0	 0.0
1.35556 0	 0.0
1.35556 0.0222222	 0.0
1.33333 0.0222222	 0.0
1.35556 0	 0.0
1.37778 0	 0.0
1.37778 0.0222222	 0.0
1.35556 0.0222222	 0.0
1.37778 0	 0.0
1.4 0	 0.0
1.4 0.0222222	 0.0
1.37778 0.0222222	 0.0
1.4 0	 0.0
1.42222 0	 0.0
1.42222 0.0222222	 0.0
1.4 0.0222222	 0.0
1.42222 0	 0.0
1.44444 0	 0.0
1.44444 0.0222222	 0.0
1.42222 0.0222222	 0.0
1.44444 0	 0.0
1.46667 0	 0.0
1.46667 0.0222222	 0.0
1.44444 0.0222222	 0.0
1.46667 0	 0.0
1.48889 0	 0.0
1.48889 0.0222222	 0.0
1.46667 0.0222222	 0.0
1.48889 0	 0.0
1.51111 0	 0.0
1.51111 0.0222222	 0.0
1.48889 0.0222222	 0.0
1.51111 0	 0.0
1.53333 0	 0.0
1.53333 0.0222222	 0.0
1.51111 0.0222222	 0.0
1.53333 0	 0.0
1.55556 0	 0.0
1.55556 0.0222222	 0.0
1.53333 0.0222222	 0.0
1.55556 0	 0.0
1.57778 0	 0.0
1.57778 0.0222222	 0.0
1.55556 0.0222222	 0.0
1.57778 0	 0.0
1.6 0	 0.0
1.6 0.0222222	 0.0
1.57778 0.0222222	 0.0
1.6 0	 0.0
1.62222 0	 0.0
1.62222 0.0222222	 0.0
1.6 0.0222222	 0.0
1.62222 0	 0.0
1.64444 0	 0.0
1.64444 0.0222222	 0.0
1.62222 0.0222222	 0.0
1.64444 0	 0.0
1.66667 0	 0.0
1.66667 0.0222222	 0.0
1.64444 0.0222222	 0.0
1.66667 0	 0.0
1.68889 0	 0.0
1.68889 0.0222222	 0.0
1.66667 0.0222222	 0.0
1.68889 0	 0.0
1.71111 0	 0.0
1.71111 0.0222222	 0.0
1.68889 0.0222222	 0.0
1.71111 0	 0.0
1.73333 0	 0.0
1.73333 0.0222222	 0.0
1.71111 0.0222222	 0.0
1.73333 0	 0.0
1.75556 0	 0.0
1.75556 0.0222222	 0.0
1.73333 0.0222222	 0.0
1.75556 0	 0.0
1.77778 0	 0.0
1.77778 0.0222222	 0.0
1.75556 0.0222222	 0.0
1.77778 0	 0.0
1.8 0	 0.0
1.8 0.0222222	 0.0
1.77778 0.0222222	 0.0
1.8 0	 0.0
1.82222 0	 0.0
1.82222 0.0222222	 0.0
1.8 0.0222222	 0.0
1.82222 0	 0.0
1.84444 0	 0.0
1.84444 0.0222222	 0.0
1.82222 0.0222222	 0.0
1.84444 0	 0.0
1.86667 0	 0.0
1.86667 0.0222222	 0.0
1.84444 0.0222222	 0.0
1.86667 0	 0.0
1.88889 0	 0.0
1.88889 0.0222222	 0.0
1.86667 0.0222222	 0.0
1.88889 0	 0.0
1.91111 0	 0.0
1.91111 0.0222222	 0.0
1.88889 0.0222222	 0.0
1.91111 0	 0.0
1.93333 0	 0.0
1.93333 0.0222222	 0.0
1.91111 0.0222222	 0.0
1.93333 0	 0.0
1.95556 0	 0.0
1.95556 0.0222222	 0.0
1.93333 0.0222222	 0.0
1.95556 0	 0.0
1.97778 0	 0.0
1.97778 0.0222222	 0.0
1.95556 0.0222222	 0.0
1.97778 0	 0.0
2 0	 0.0
2 0.0222222	 0.0
1.97778 0.0222222	 0.0
2 0	 0.0
2.02222 0	 0.0
2.02222 0.0222222	 0.0
2 0.0222222	 0.0
2.02222 0	 0.0
2.04444 0	 0.0
2.04444 0.0222222	 0.0
2.02222 0.0222222	 0.0
2.04444 0	 0.0
2.06667 0	 0.0
2.06667 0.0222222	 0.0
2.04444 0.0222222	 0.0
2.06667 0	 0.0
2.08889 0	 0.0
2.08889 0.0222222	 0.0
2.06667 0.0222222	 0.0
2.08889 0	 0.0
2.11111 0	 0.0
2.11111 0.0222222	 0.0
2.08889 0.0222222	 0.0
2.11111 0	 0.0
2.13333 0	 0.0
2.13333 0.0222222	 0.0
2.11111 0.0222222	 0.0
2.13333 0	 0.0
2.15556 0	 0.0
2.15556 0.0222222	 0.0
2.13333 0.0222222	 0.0
2.15556 0	 0.0
2.17778 0	 0.0
2.17778 0.0222222	 0.0
2.15556 0.0222222	 0.0
2.17778 0	 0.0
2.2 0	 0.0
2.2 0.0222222	 0.0
2.17778 0.0222222	 0.0
2.2 0	 0.0
2.22222 0	 0.0
2.22222 0.0222222	 0.0
2.2 0.0222222	 0.0
2.22222 0	 0.0
2.24444 0	 0.0
2.24444 0.0222222	 0.0
2.22222 0.0222222	 0.0
2.24444 0	 0.0
2.26667 0	 0.0
2.26667 0.0222222	 0.0
2.24444 0.0222222	 0.0
2.26667 0	 0.0
2.28889 0	 0.0
2.28889 0.0222222	 0.0
2.26667 0.0222222	 0.0
2.28889 0	 0.0
2.31111 0	 0.0
2.31111 0.0222222	 0.0
2.28889 0.0222222	 0.0
2.31111 0	 0.0
2.33333 0	 0.0
2.33333 0.0222222	 0.0
2.31111 0.0222222	 0.0
2.33333 0	 0.0
2.35556 0	 0.0
2.35556 0.0222222	 0.0
2.33333 0.0222222	 0.0
2.35556 0	 0.0
2.37778 0	 0.0
2.37778 0.0222222	 0.0
2.35556 0.0222222	 0.0
2.37778 0	 0.0
2.4 0	 0.0
2.4 0.0222222	 0.0
2.37778 0.0222222	 0.0
2.4 0	 0.0
2.42222 0	 0.0
2.42222 0.0222222	 0.0
2.4 0.0222222	 0.0
2.42222 0	 0.0
2.44444 0	 0.0
2.44444 0.0222222	 0.0
2.42222 0.0222222	 0.0
2.44444 0	 0.0
2.46667 0	 0.0
2.46667 0.0222222	 0.0
2.44444 0.0222222	 0.0
2.46667 0	 0.0
2.48889 0	 0.0
2.48889 0.0222222	 0.0
2.46667 0.0222222	 0.0
2.48889 0	 0.0
2.51111 0	 0.0
2.51111 0.0222222	 0.0
2.48889 0.0222222	 0.0
2.51111 0	 0.0
2.53333 0	 0.0
2.53333 0.0222222	 0.0
2.51111 0.0222222	 0.0
2.53333 0	 0.0
2.55556 0	 0.0
2.55556 0.0222222	 0.0
2.53333 0.0222222	 0.0
2.55556 0	 0.0
2.57778 0	 0.0
2.57778 0.0222222	 0.0
2.55556 0.0222222	 0.0
2.57778 0	 0.0
2.6 0	 0.0
2.6 0.0222222	 0.0
2.57778 0.0222222	 0.0
2.6 0	 0.0
2.62222 0	 0.0
2.62222 0.0222222	 0.0
2.6 0.0222222	 0.0
2.62222 0	 0.0
2.64444 0	 0.0
2.64444 0.0222222	 0.0
2.62222 0.0222222	 0.0
2.64444 0	 0.0
2.66667 0	 0.0
2.66667 0.0222222	 0.0
2.64444 0.0222222	 0.0
2.66667 0	 0.0
2.68889 0	 0.0
2.68889 0.0222222	 0.0
2.66667 0.0222222	 0.0
2.68889 0	 0.0
2.71111 0	 0.0
2.71111 0.0222222	 0.0
2.68889 0.0222222	 0.0
2.71111 0	 0.0
2.73333 0	 0.0
2.73333 0.0222222	 0.0
2.71111 0.0222222	 0.0
2.73333 0	 0.0
2.75556 0	 0.0
2.75556 0.0222222	 0.0
2.73333 0.0222222	 0.0
2.75556 0	 0.0
2.77778 0	 0.0
2.77778 0.0222222	 0.0
2.75556 0.0222222	 0.0
2.77778 0	 0.0
2.8 0	 0.0
2.8 0.0222222	 0.0
2.77778 0.0222222	 0.0
2.8 0	 0.0
2.82222 0	 0.0
2.82222 0.0222222	 0.0
2.8 0.0222222	 0.0
2.82222 0	 0.0
2.84444 0	 0.0
2.84444 0.0222222	 0.0
2.82222 0.0222222	 0.0
2.84444 0	 0.0
2.86667 0	 0.0
2.86667 0.0222222	 0.0
2.84444 0.0222222	 0.0
2.86667 0	 0.0
2.88889 0	 0.0
2.88889 0.0222222	 0.0
2.86667 0.0222222	 0.0
2.88889 0	 0.0
2.91111 0	 0.0
2.91111 0.0222222	 0.0
2.88889 0.0222222	 0.0
2.91111 0	 0.0
[...]
POINT_DATA 23424
SCALARS levelset_first float
LOOKUP_TABLE default
-5.79172
-5.68825
-5.66208
-5.76555
-5.68825
-5.58577
-5.55959
-5.66208
-5.58577
-5.48427
-5.4581
-5.55959
-5.48427
-5.38377
-5.35759
-5.4581
-5.38377
-5.28425
-5.25808
-5.35759
-5.28425
-5.18572
-5.15954
-5.25808
-5.18572
-5.08817
-5.062
-5.15954
-5.08817
-4.99162
-4.96545
-5.062
-4.99162
-4.89605
-4.86988
-4.96545
-4.89605
-4.80147
-4.7753
-4.86988
-4.80147
-4.70788
-4.6817
-4.7753
-4.70788
-4.61527
-4.5891
-4.6817
-4.61527
-4.52365
-4.49748
-4.5891
-4.52365
-4.43302
-4.40685
-4.49748
-4.43302
-4.34338
-4.31721
-4.40685
-4.34338
-4.25473
-4.22855
-4.31721
-4.25473
-4.16706
-4.14089
-4.22855
-4.16706
-4.08038
-4.05421
-4.14089
-4.08038
-3.99469
-3.96852
-4.05421
-3.99469
-3.90999
-3.88381
-3.96852
-3.90999
-3.82627
-3.8001
-3.88381
-3.82627
-3.74354
-3.71737
-3.8001
-3.74354
-3.6618
-3.63563
-3.71737
-3.6618
-3.58105
-3.55487
-3.63563
-3.58105
-3.50128
-3.47511
-3.55487
-3.50128
-3.4225
-3.39633
-3.47511
-3.4225
-3.34471
-3.31854
-3.39633
-3.34471
-3.26791
-3.24174
-3.31854
-3.26791
-3.1921
-3.16592
-3.24174
-3.1921
-3.11727
-3.0911
-3.16592
-3.11727
-3.04343
-3.01726
-3.0911
-3.04343
-2.97058
-2.9444
-3.01726
-2.97058
-2.89871
-2.87254
-2.9444
-2.89871
-2.82784
-2.80166
-2.87254
-2.82784
-2.75795
-2.73177
-2.80166
-2.75795
-2.68905
-2.66287
-2.73177
-2.68905
-2.62113
-2.59496
-2.66287
-2.62113
-2.55421
-2.52803
-2.59496
-2.55421
-2.48827
-2.46209
-2.52803
-2.48827
-2.42332
-2.39714
-2.46209
-2.42332
-2.35935
-2.33318
-2.39714
-2.35935
-2.29638
-2.2702
-2.33318
-2.29638
-2.23439
-2.20822
-2.2702
-2.23439
-2.17339
-2.14722
-2.20822
-2.17339
-2.11338
-2.0872
-2.14722
-2.11338
-2.05435
-2.02818
-2.0872
-2.05435
-1.99632
-1.97014
-2.02818
-1.99632
-1.93927
-1.91309
-1.97014
-1.93927
-1.8832
-1.85703
-1.91309
-1.8832
-1.82813
-1.80196
-1.85703
-1.82813
-1.77404
-1.74787
-1.80196
-1.77404
-1.72094
-1.69477
-1.74787
-1.72094
-1.66883
-1.64266
-1.69477
-1.66883
-1.61771
-1.59154
-1.64266
-1.61771
-1.56757
-1.5414
-1.59154
-1.56757
-1.51842
-1.49225
-1.5414
-1.51842
-1.47026
-1.44409
-1.49225
-1.47026
-1.42309
-1.39692
-1.44409
-1.42309
-1.37691
-1.35073
-1.39692
-1.37691
-1.33171
-1.30554
-1.35073
-1.33171
-1.2875
-1.26133
-1.30554
-1.2875
-1.24428
-1.2181
-1.26133
-1.24428
-1.20204
-1.17587
-1.2181
-1.20204
-1.16079
-1.13462
-1.17587
-1.16079
-1.12053
-1.09436
-1.13462
-1.12053
-1.08126
-1.05509
-1.09436
-1.08126
-1.04298
-1.01681
-1.05509
-1.04298
-1.00568
-0.979509
-1.01681
-1.00568
-0.969373
-0.943201
-0.979509
-0.969373
-0.934052
-0.907879
-0.943201
-0.934052
-0.899719
-0.873546
-0.907879
-0.899719
-0.866373
-0.8402
-0.873546
-0.866373
-0.834015
-0.807842
-0.8402
-0.834015
-0.802644
-0.776471
-0.807842
-0.802644
-0.772261
-0.746088
-0.776471
-0.772261
-0.742866
-0.716693
-0.746088
-0.742866
-0.714458
-0.688286
-0.716693
-0.714458
-0.687039
-0.660866
-0.688286
-0.687039
-0.660606
-0.634433
-0.660866
-0.660606
-0.635162
-0.608989
-0.634433
-0.635162
-0.610705
-0.584532
-0.608989
-0.610705
-0.587235
-0.561063
-0.584532
-0.587235
-0.564754
-0.538581
-0.561063
-0.564754
-0.54326
-0.517087
-0.538581
-0.54326
-0.522753
-0.496581
-0.517087
-0.522753
-0.503235
-0.477062
-0.496581
-0.503235
-0.484704
-0.458531
-0.477062
-0.484704
-0.46716
-0.440988
-0.458531
-0.46716
-0.450605
-0.424432
-0.440988
-0.450605
-0.435037
-0.408864
-0.424432
-0.435037
-0.420456
-0.394283
-0.408864
-0.420456
-0.406863
-0.380691
-0.394283
-0.406863
-0.394258
-0.368085
-0.380691
-0.394258
-0.382641
-0.356468
-0.368085
-0.382641
-0.372011
-0.345838
-0.356468
-0.372011
-0.362369
-0.336196
-0.345838
-0.362369
-0.353714
-0.327542
-0.336196
-0.353714
-0.346048
-0.319875
-0.327542
-0.346048
-0.339368
-0.313196
-0.319875
-0.339368
-0.333677
-0.307504
-0.313196
-0.333677
-0.328973
-0.3028
-0.307504
-0.328973
-0.325257
-0.299084
-0.3028
-0.325257
-0.322528
-0.296355
-0.299084
-0.322528
-0.320787
-0.294614
-0.296355
-0.320787
-0.320034
-0.293861
-0.294614
-0.320034
-0.320268
-0.294096
-0.293861
-0.320268
-0.321491
-0.295318
-0.294096
-0.321491
-0.3237
-0.297527
-0.295318
-0.3237
-0.326898
-0.300725
-0.297527
-0.326898
-0.331083
-0.30491
-0.300725
-0.331083
-0.336255
-0.310082
-0.30491
-0.336255
-0.342416
-0.316243
-0.310082
-0.342416
-0.349564
-0.323391
-0.316243
-0.349564
-0.357699
-0.331526
-0.323391
-0.357699
-0.366823
-0.34065
-0.331526
-0.366823
-0.376933
-0.350761
-0.34065
-0.376933
-0.388032
-0.361859
-0.350761
-0.388032
-0.400118
-0.373945
-0.361859
-0.400118
-0.413192
-0.387019
-0.373945
-0.413192
-0.427254
-0.401081
-0.387019
-0.427254
-0.442303
-0.41613
-0.401081
-0.442303
-0.45834
-0.432167
-0.41613
-0.45834
-0.475364
-0.449192
-0.432167
-0.475364
-0.493377
-0.467204
-0.449192
-0.493377
-0.512376
-0.486204
-0.467204
-0.512376
-0.532364
-0.506191
-0.486204
-0.532364
-0.553339
-0.527166
-0.506191
-0.553339
-0.575302
-0.549129
-0.527166
-0.575302
-0.598252
-0.572079
-0.549129
-0.598252
-0.62219
-0.596018
-0.572079
-0.62219
-0.647116
-0.620943
-0.596018
-0.647116
-0.67303
-0.646857
-0.620943
-0.67303
-0.699931
-0.673758
-0.646857
-0.699931
-0.727819
-0.701647
-0.673758
-0.727819
-0.756696
-0.730523
-0.701647
-5.76555
-5.66208
-5.63689
-5.74036
-5.66208
-5.55959
-5.53441
-5.63689
-5.55959
-5.4581
-5.43292
-5.53441
-5.4581
-5.35759
-5.33241
-5.43292
-5.35759
-5.25808
-5.23289
-5.33241
-5.25808
-5.15954
-5.13436
-5.23289
-5.15954
-5.062
-5.03682
-5.13436
-5.062
-4.96545
-4.94026
-5.03682
-4.96545
-4.86988
-4.84469
-4.94026
-4.86988
-4.7753
-4.75011
-4.84469
-4.7753
-4.6817
-4.65652
-4.75011
-4.6817
-4.5891
-4.56391
-4.65652
-4.5891
-4.49748
-4.4723
-4.56391
-4.49748
-4.40685
-4.38167
-4.4723
-4.40685
-4.31721
-4.29202
-4.38167
-4.31721
-4.22855
-4.20337
-4.29202
-4.22855
-4.14089
-4.1157
-4.20337
-4.14089
-4.05421
-4.02902
-4.1157
-4.05421
-3.96852
-3.94333
-4.02902
-3.96852
-3.88381
-3.85863
-3.94333
-3.88381
-3.8001
-3.77491
-3.85863
-3.8001
-3.71737
-3.69218
-3.77491
-3.71737
-3.63563
-3.61044
-3.69218
-3.63563
-3.55487
-3.52969
-3.61044
-3.55487
-3.47511
-3.44992
-3.52969
-3.47511
-3.39633
-3.37115
-3.44992
-3.39633
-3.31854
-3.29336
-3.37115
-3.31854
-3.24174
-3.21655
-3.29336
-3.24174
-3.16592
-3.14074
-3.21655
-3.16592
-3.0911
-3.06591
-3.14074
-3.0911
-3.01726
-2.99207
-3.06591
-3.01726
-2.9444
-2.91922
-2.99207
-2.9444
-2.87254
-2.84735
-2.91922
-2.87254
-2.80166
-2.77648
-2.84735
-2.80166
-2.73177
-2.70659
-2.77648
-2.73177
-2.66287
-2.63769
-2.70659
-2.66287
-2.59496
-2.56977
-2.63769
-2.59496
-2.52803
-2.50285
-2.56977
-2.52803
-2.46209
-2.43691
-2.50285
-2.46209
-2.39714
-2.37196
-2.43691
-2.39714
-2.33318
-2.308
-2.37196
-2.33318
-2.2702
-2.24502
-2.308
-2.2702
-2.20822
-2.18303
-2.24502
-2.20822
-2.14722
-2.12203
-2.18303
-2.14722
-2.0872
-2.06202
-2.12203
-2.0872
-2.02818
-2.00299
-2.06202
-2.02818
-1.97014
-1.94496
-2.00299
-1.97014
-1.91309
-1.88791
-1.94496
-1.91309
-1.85703
-1.83185
-1.88791
-1.85703
-1.80196
-1.77677
-1.83185
-1.80196
-1.74787
-1.72268
-1.77677
-1.74787
-1.69477
-1.66959
-1.72268
-1.69477
-1.64266
-1.61747
-1.66959
-1.64266
-1.59154
-1.56635
-1.61747
-1.59154
-1.5414
-1.51622
-1.56635
-1.5414
-1.49225
-1.46707
-1.51622
-1.49225
-1.44409
-1.41891
-1.46707
-1.44409
-1.39692
-1.37173
-1.41891
-1.39692
-1.35073
-1.32555
-1.37173
-1.35073
-1.30554
-1.28035
-1.32555
-1.30554
-1.26133
-1.23614
-1.28035
-1.26133
-1.2181
-1.19292
-1.23614
-1.2181
-1.17587
-1.15068
-1.19292
-1.17587
-1.13462
-1.10944
-1.15068
-1.13462
-1.09436
-1.06918
-1.10944
-1.09436
-1.05509
-1.0299
-1.06918
-1.05509
-1.01681
-0.991621
-1.0299
-1.01681
-0.979509
-0.954324
-0.991621
-0.979509
-0.943201
-0.918015
-0.954324
-0.943201
-0.907879
-0.882694
-0.918015
-0.907879
-0.873546
-0.848361
-0.882694
-0.873546
-0.8402
-0.815015
-0.848361
-0.8402
-0.807842
-0.782657
-0.815015
-0.807842
-0.776471
-0.751286
-0.782657
-0.776471
-0.746088
-0.720903
-0.751286
-0.746088
-0.716693
-0.691508
-0.720903
-0.716693
-0.688286
-0.6631
-0.691508
-0.688286
-0.660866
-0.635681
-0.6631
-0.660866
-0.634433
-0.609248
-0.635681
-0.634433
-0.608989
-0.583804
-0.609248
-0.608989
-0.584532
-0.559347
-0.583804
-0.584532
-0.561063
-0.535877
-0.559347
-0.561063
-0.538581
-0.513396
-0.535877
-0.538581
-0.517087
-0.491902
-0.513396
-0.517087
-0.496581
-0.471395
-0.491902
-0.496581
-0.477062
-0.451877
-0.471395
-0.477062
-0.458531
-0.433346
-0.451877
-0.458531
-0.440988
-0.415802
-0.433346
-0.440988
-0.424432
-0.399247
-0.415802
-0.424432
-0.408864
-0.383679
-0.399247
-0.408864
-0.394283
-0.369098
-0.383679
-0.394283
-0.380691
-0.355505
-0.369098
-0.380691
-0.368085
-0.3429
-0.355505
-0.368085
-0.356468
-0.331283
-0.3429
-0.356468
-0.345838
-0.320653
-0.331283
-0.345838
-0.336196
-0.311011
-0.320653
-0.336196
-0.327542
-0.302356
-0.311011
-0.327542
-0.319875
-0.29469
-0.302356
-0.319875
-0.313196
-0.28801
-0.29469
-0.313196
-0.307504
-0.282319
-0.28801
-0.307504
-0.3028
-0.277615
-0.282319
-0.3028
-0.299084
-0.273899
-0.277615
-0.299084
-0.296355
-0.27117
-0.273899
-0.296355
-0.294614
-0.269429
-0.27117
-0.294614
-0.293861
-0.268676
-0.269429
-0.293861
-0.294096
-0.26891
-0.268676
-0.294096
-0.295318
-0.270133
-0.26891
-0.295318
-0.297527
-0.272342
-0.270133
-0.297527
-0.300725
-0.27554
-0.272342
-0.300725
-0.30491
-0.279725
-0.27554
-0.30491
-0.310082
-0.284897
-0.279725
-0.310082
-0.316243
-0.291058
-0.284897
-0.316243
-0.323391
-0.298206
-0.291058
-0.323391
-0.331526
-0.306341
-0.298206
-0.331526
-0.34065
-0.315465
-0.306341
-0.34065
-0.350761
-0.325575
-0.315465
-0.350761
-0.361859
-0.336674
-0.325575
-0.361859
-0.373945
-0.34876
-0.336674
-0.373945
-0.387019
-0.361834
-0.34876
-0.387019
-0.401081
-0.375896
-0.361834
-0.401081
-0.41613
-0.390945
-0.375896
-0.41613
-0.432167
-0.406982
-0.390945
-0.432167
-0.449192
-0.424006
-0.406982
-0.449192
-0.467204
-0.442019
-0.424006
-0.467204
-0.486204
-0.461018
-0.442019
-0.486204
-0.506191
-0.481006
-0.461018
-0.506191
-0.527166
-0.501981
-0.481006
-0.527166
-0.549129
-0.523944
-0.501981
-0.549129
-0.572079
-0.546894
-0.523944
-0.572079
-0.596018
-0.570832
-0.546894
-0.596018
-0.620943
-0.595758
-0.570832
-0.620943
-0.646857
-0.621672
-0.595758
-0.646857
-0.673758
-0.648573
-0.621672
-0.673758
-0.701647
-0.676461
-0.648573
-0.701647
-0.730523
-0.705338
-0.676461
-5.74036
-5.63689
-5.61269
-5.71616
-5.63689
-5.53441
-5.51021
-5.61269
-5.53441
-5.43292
-5.40872
-5.51021
-5.43292
-5.33241
-5.30821
-5.40872
-5.33241
-5.23289
-5.20869
-5.30821
-5.23289
-5.13436
-5.11016
-5.20869
-5.13436
-5.03682
-5.01262
-5.11016
-5.03682
-4.94026
-4.91606
-5.01262
-4.94026
-4.84469
-4.82049
-4.91606
-4.84469
-4.75011
-4.72591
-4.82049
-4.75011
-4.65652
-4.63232
-4.72591
-4.65652
-4.56391
-4.53972
-4.63232
-4.56391
-4.4723
-4.4481
-4.53972
-4.4723
-4.38167
-4.35747
-4.4481
-4.38167
-4.29202
-4.26783
-4.35747
-4.29202
-4.20337
-4.17917
-4.26783
-4.20337
-4.1157
-4.09151
-4.17917
-4.1157
-4.02902
-4.00483
-4.09151
-4.02902
-3.94333
-3.91913
-4.00483
-3.94333
-3.85863
-3.83443
-3.91913
-3.85863
-3.77491
-3.75071
-3.83443
-3.77491
-3.69218
-3.66799
-3.75071
-3.69218
-3.61044
-3.58625
-3.66799
-3.61044
-3.52969
-3.50549
-3.58625
-3.52969
-3.44992
-3.42573
-3.50549
-3.44992
-3.37115
-3.34695
-3.42573
-3.37115
-3.29336
-3.26916
-3.34695
-3.29336
-3.21655
-3.19236
-3.26916
-3.21655
-3.14074
-3.11654
-3.19236
-3.14074
-3.06591
-3.04171
-3.11654
-3.06591
-2.99207
-2.96787
-3.04171
-2.99207
-2.91922
-2.89502
-2.96787
-2.91922
-2.84735
-2.82316
-2.89502
-2.84735
-2.77648
-2.75228
-2.82316
-2.77648
-2.70659
-2.68239
-2.75228
-2.70659
-2.63769
-2.61349
-2.68239
-2.63769
-2.56977
-2.54558
-2.61349
-2.56977
-2.50285
-2.47865
-2.54558
-2.50285
-2.43691
-2.41271
-2.47865
-2.43691
-2.37196
-2.34776
-2.41271
-2.37196
-2.308
-2.2838
-2.34776
-2.308
-2.24502
-2.22082
-2.2838
-2.24502
-2.18303
-2.15883
-2.22082
-2.18303
-2.12203
-2.09783
-2.15883
-2.12203
-2.06202
-2.03782
-2.09783
-2.06202
-2.00299
-1.9788
-2.03782
-2.00299
-1.94496
-1.92076
-1.9788
-1.94496
-1.88791
-1.86371
-1.92076
-1.88791
-1.83185
-1.80765
-1.86371
-1.83185
-1.77677
-1.75257
-1.80765
-1.77677
-1.72268
-1.69849
-1.75257
-1.72268
-1.66959
-1.64539
-1.69849
-1.66959
-1.61747
-1.59328
-1.64539
-1.61747
-1.56635
-1.54215
-1.59328
-1.56635
-1.51622
-1.49202
-1.54215
-1.51622
-1.46707
-1.44287
-1.49202
-1.46707
-1.41891
-1.39471
-1.44287
-1.41891
-1.37173
-1.34754
-1.39471
-1.37173
-1.32555
-1.30135
-1.34754
-1.32555
-1.28035
-1.25615
-1.30135
-1.28035
-1.23614
-1.21194
-1.25615
-1.23614
-1.19292
-1.16872
-1.21194
-1.19292
-1.15068
-1.12649
-1.16872
-1.15068
-1.10944
-1.08524
-1.12649
-1.10944
-1.06918
-1.04498
-1.08524
-1.06918
-1.0299
-1.00571
-1.04498
-1.0299
-0.991621
-0.967423
-1.00571
-0.991621
-0.954324
-0.930127
-0.967423
-0.954324
-0.918015
-0.893818
-0.930127
-0.918015
-0.882694
-0.858497
-0.893818
-0.882694
-0.848361
-0.824163
-0.858497
-0.848361
-0.815015
-0.790817
-0.824163
-0.815015
-0.782657
-0.758459
-0.790817
-0.782657
-0.751286
-0.727089
-0.758459
-0.751286
-0.720903
-0.696706
-0.727089
-0.720903
-0.691508
-0.66731
-0.696706
-0.691508
-0.6631
-0.638903
-0.66731
-0.6631
-0.635681
-0.611483
-0.638903
-0.635681
-0.609248
-0.585051
-0.611483
-0.609248
-0.583804
-0.559606
-0.585051
-0.583804
-0.559347
-0.535149
-0.559606
-0.559347
-0.535877
-0.51168
-0.535149
-0.535877
-0.513396
-0.489198
-0.51168
-0.513396
-0.491902
-0.467704
-0.489198
-0.491902
-0.471395
-0.447198
-0.467704
-0.471395
-0.451877
-0.427679
-0.447198
-0.451877
-0.433346
-0.409148
-0.427679
-0.433346
-0.415802
-0.391605
-0.409148
-0.415802
-0.399247
-0.375049
-0.391605
-0.399247
-0.383679
-0.359481
-0.375049
-0.383679
-0.369098
-0.344901
-0.359481
-0.369098
-0.355505
-0.331308
-0.344901
-0.355505
-0.3429
-0.318703
-0.331308
-0.3429
-0.331283
-0.307085
-0.318703
-0.331283
-0.320653
-0.296455
-0.307085
-0.320653
-0.311011
-0.286813
-0.296455
-0.311011
-0.302356
-0.278159
-0.286813
-0.302356
-0.29469
-0.270492
-0.278159
-0.29469
-0.28801
-0.263813
-0.270492
-0.28801
-0.282319
-0.258121
-0.263813
-0.282319
-0.277615
-0.253417
-0.258121
-0.277615
-0.273899
-0.249701
-0.253417
-0.273899
-0.27117
-0.246973
-0.249701
-0.27117
-0.269429
-0.245232
-0.246973
-0.269429
-0.268676
-0.244479
-0.245232
-0.268676
-0.26891
-0.244713
-0.244479
-0.26891
-0.270133
-0.245935
-0.244713
-0.270133
-0.272342
-0.248145
-0.245935
-0.272342
-0.27554
-0.251342
-0.248145
-0.27554
-0.279725
-0.255527
-0.251342
-0.279725
-0.284897
-0.2607
-0.255527
-0.284897
-0.291058
-0.26686
-0.2607
-0.291058
-0.298206
-0.274008
-0.26686
-0.298206
-0.306341
-0.282144
-0.274008
-0.306341
-0.315465
-0.291267
-0.282144
-0.315465
-0.325575
-0.301378
-0.291267
-0.325575
-0.336674
-0.312477
-0.301378
-0.336674
-0.34876
-0.324563
-0.312477
-0.34876
-0.361834
-0.337637
-0.324563
-0.361834
-0.375896
-0.351698
-0.337637
-0.375896
-0.390945
-0.366747
-0.351698
-0.390945
-0.406982
-0.382784
-0.366747
-0.406982
-0.424006
-0.399809
-0.382784
-0.424006
-0.442019
-0.417821
-0.399809
-0.442019
-0.461018
-0.436821
-0.417821
-0.461018
-0.481006
-0.456808
-0.436821
-0.481006
-0.501981
-0.477784
-0.456808
-0.501981
-0.523944
-0.499746
-0.477784
-0.523944
-0.546894
-0.522697
-0.499746
-0.546894
-0.570832
-0.546635
-0.522697
-0.570832
-0.595758
-0.571561
-0.546635
-0.595758
-0.621672
-0.597474
-0.571561
-0.621672
-0.648573
-0.624375
-0.597474
-0.648573
-0.676461
-0.652264
-0.624375
-0.676461
-0.705338
-0.68114
-0.652264
-5.71616
-5.61269
-5.58948
-5.69295
-5.61269
-5.51021
-5.487
-5.58948
-5.51021
-5.40872
-5.38551
-5.487
-5.40872
-5.30821
-5.285
-5.38551
-5.30821
-5.20869
-5.18548
-5.285
-5.20869
-5.11016
-5.08695
-5.18548
-5.11016
-5.01262
-4.98941
-5.08695
-5.01262
-4.91606
-4.89285
-4.98941
-4.91606
-4.82049
-4.79728
-4.89285
-4.82049
-4.72591
-4.7027
-4.79728
-4.72591
-4.63232
-4.60911
-4.7027
-4.63232
-4.53972
-4.51651
-4.60911
-4.53972
-4.4481
-4.42489
-4.51651
-4.4481
-4.35747
-4.33426
-4.42489
-4.35747
-4.26783
-4.24462
-4.33426
-4.26783
-4.17917
-4.15596
-4.24462
-4.17917
-4.09151
-4.0683
-4.15596
-4.09151
-4.00483
-3.98162
-4.0683
-4.00483
-3.91913
-3.89592
-3.98162
-3.91913
-3.83443
-3.81122
-3.89592
-3.83443
-3.75071
-3.7275
-3.81122
-3.75071
-3.66799
-3.64478
-3.7275
-3.66799
-3.58625
-3.56304
-3.64478
-3.58625
-3.50549
-3.48228
-3.56304
-3.50549
-3.42573
-3.40252
-3.48228
-3.42573
-3.34695
-3.32374
-3.40252
-3.34695
-3.26916
-3.24595
-3.32374
-3.26916
-3.19236
-3.16915
-3.24595
-3.19236
-3.11654
-3.09333
-3.16915
-3.11654
-3.04171
-3.0185
-3.09333
-3.04171
-2.96787
-2.94466
-3.0185
-2.96787
-2.89502
-2.87181
-2.94466
-2.89502
-2.82316
-2.79995
-2.87181
-2.82316
-2.75228
-2.72907
-2.79995
-2.75228
-2.68239
-2.65918
-2.72907
-2.68239
-2.61349
-2.59028
-2.65918
-2.61349
-2.54558
-2.52237
-2.59028
-2.54558
-2.47865
-2.45544
-2.52237
-2.47865
-2.41271
-2.3895
-2.45544
-2.41271
-2.34776
-2.32455
-2.3895
-2.34776
-2.2838
-2.26059
-2.32455
-2.2838
-2.22082
-2.19761
-2.26059
-2.22082
-2.15883
-2.13562
-2.19761
-2.15883
-2.09783
-2.07462
-2.13562
-2.09783
-2.03782
-2.01461
-2.07462
-2.03782
-1.9788
-1.95559
-2.01461
-1.9788
-1.92076
-1.89755
-1.95559
-1.92076
-1.86371
-1.8405
-1.89755
-1.86371
-1.80765
-1.78444
-1.8405
-1.80765
-1.75257
-1.72936
-1.78444
-1.75257
-1.69849
-1.67528
-1.72936
-1.69849
-1.64539
-1.62218
-1.67528
-1.64539
-1.59328
-1.57007
-1.62218
-1.59328
-1.54215
-1.51894
-1.57007
-1.54215
-1.49202
-1.46881
-1.51894
-1.49202
-1.44287
-1.41966
-1.46881
-1.44287
-1.39471
-1.3715
-1.41966
-1.39471
-1.34754
-1.32433
-1.3715
-1.34754
-1.30135
-1.27814
-1.32433
-1.30135
-1.25615
-1.23294
-1.27814
-1.25615
-1.21194
-1.18873
-1.23294
-1.21194
-1.16872
-1.14551
-1.18873
-1.16872
-1.12649
-1.10328
-1.14551
-1.12649
-1.08524
-1.06203
-1.10328
-1.08524
-1.04498
-1.02177
-1.06203
-1.04498
-1.00571
-0.982497
-1.02177
-1.00571
-0.967423
-0.944213
-0.982497
-0.967423
-0.930127
-0.906917
-0.944213
-0.930127
-0.893818
-0.870608
-0.906917
-0.893818
-0.858497
-0.835287
-0.870608
-0.858497
-0.824163
-0.800953
-0.835287
-0.824163
-0.790817
-0.767607
-0.800953
-0.790817
-0.758459
-0.735249
-0.767607
-0.758459
-0.727089
-0.703879
-0.735249
-0.727089
-0.696706
-0.673496
-0.703879
-0.696706
-0.66731
-0.644101
-0.673496
-0.66731
-0.638903
-0.615693
-0.644101
-0.638903
-0.611483
-0.588273
-0.615693
-0.611483
-0.585051
-0.561841
-0.588273
-0.585051
-0.559606
-0.536396
-0.561841
-0.559606
-0.535149
-0.511939
-0.536396
-0.535149
-0.51168
-0.48847
-0.511939
-0.51168
-0.489198
-0.465988
-0.48847
-0.489198
-0.467704
-0.444494
-0.465988
-0.467704
-0.447198
-0.423988
-0.444494
-0.447198
-0.427679
-0.404469
-0.423988
-0.427679
-0.409148
-0.385938
-0.404469
-0.409148
-0.391605
-0.368395
-0.385938
-0.391605
-0.375049
-0.351839
-0.368395
-0.375049
-0.359481
-0.336271
-0.351839
-0.359481
-0.344901
-0.321691
-0.336271
-0.344901
-0.331308
-0.308098
-0.321691
-0.331308
-0.318703
-0.295493
-0.308098
-0.318703
-0.307085
-0.283875
-0.295493
-0.307085
-0.296455
-0.273246
-0.283875
-0.296455
-0.286813
-0.263603
-0.273246
-0.286813
-0.278159
-0.254949
-0.263603
-0.278159
-0.270492
-0.247282
-0.254949
-0.270492
-0.263813
-0.240603
-0.247282
-0.263813
-0.258121
-0.234911
-0.240603
-0.258121
-0.253417
-0.230208
-0.234911
-0.253417
-0.249701
-0.226491
-0.230208
-0.249701
-0.246973
-0.223763
-0.226491
-0.246973
-0.245232
-0.222022
-0.223763
-0.245232
-0.244479
-0.221269
-0.222022
-0.244479
-0.244713
-0.221503
-0.221269
-0.244713
-0.245935
-0.222725
-0.221503
-0.245935
-0.248145
-0.224935
-0.222725
-0.248145
-0.251342
-0.228132
-0.224935
-0.251342
-0.255527
-0.232317
-0.228132
-0.255527
-0.2607
-0.23749
-0.232317
-0.2607
-0.26686
-0.24365
-0.23749
-0.26686
-0.274008
-0.250798
-0.24365
-0.274008
-0.282144
-0.258934
-0.250798
-0.282144
-0.291267
-0.268057
-0.258934
-0.291267
-0.301378
-0.278168
-0.268057
-0.301378
-0.312477
-0.289267
-0.278168
-0.312477
-0.324563
-0.301353
-0.289267
-0.324563
-0.337637
-0.314427
-0.301353
-0.337637
-0.351698
-0.328488
-0.314427
-0.351698
-0.366747
-0.343538
-0.328488
-0.366747
-0.382784
-0.359574
-0.343538
-0.382784
-0.399809
-0.376599
-0.359574
-0.399809
-0.417821
-0.394611
-0.376599
-0.417821
-0.436821
-0.413611
-0.394611
-0.436821
-0.456808