# vtk DataFile Version 1.0
unstructured Grid
ASCII
DATASET UNSTRUCTURED_GRID
POINTS 23448 float 
0 0	 0.0
0.0222222 0	 0.0
0.0222222 0.0222222	 0.0
0 0.0222222	 0.0
0.0222222 0	 0.0
0.0444444 0	 0.0
0.0444444 0.0222222	 0.0
0.0222222 0.0222222	 0.0
0.0444444 0	 0.0
0.0666667 0	 0.0
0.0666667 0.0222222	 0.0
0.0444444 0.0222222	 0.0
0.0666667 0	 0.0
0.0888889 0	 0.0
0.0888889 0.0222222	 0.0
0.0666667 0.0222222	 0.0
0.0888889 0	 0.0
0.111111 0	 0.0
0.111111 0.0222222	 0.0
0.0888889 0.0222222	 0.0
0.111111 0	 0.0
0.133333 0	 0.0
0.133333 0.0222222	 0.0
0.111111 0.0222222	 0.0
0.133333 0	 0.0
0.155556 0	 0.0
0.155556 0.0222222	 0.0
0.133333 0.0222222	 0.0
0.155556 0	 0.0
0.177778 0	 0.0
0.177778 0.0222222	 0.0
0.155556 0.0222222	 0.0
0.177778 0	 0.0
0.2 0	 0.0
0.2 0.0222222	 0.0
0.177778 0.0222222	 0.0
0.2 0	 0.0
0.222222 0	 0.0
0.222222 0.0222222	 0.0
0.2 0.0222222	 0.0
0.222222 0	 0.0
0.244444 0	 0.0
0.244444 0.0222222	 0.0
0.222222 0.0222222	 0.0
0.244444 0	 0.0
0.266667 0	 0.0
0.266667 0.0222222	 0.0
0.244444 0.0222222	 0.0
0.266667 0	 0.0
0.288889 0	 0.0
0.288889 0.0222222	 0.0
0.266667 0.0222222	 0.0
0.288889 0	 0.0
0.311111 0	 0.0
0.311111 0.0222222	 0.0
0.288889 0.0222222	 0.0
0.311111 0	 0.0
0.333333 0	 0.0
0.333333 0.0222222	 0.0
0.311111 0.0222222	 0.0
0.333333 0	 0.0
0.355556 0	 0.0
0.355556 0.0222222	 0.0
0.333333 0.0222222	 0.0
0.355556 0	 0.0
0.377778 0	 0.0
0.377778 0.0222222	 0.0
0.355556 0.0222222	 0.0
0.377778 0	 0.0
0.4 0	 0.0
0.4 0.0222222	 0.0
0.377778 0.0222222	 0.0
0.4 0	 0.0
0.422222 0	 0.0
0.422222 0.0222222	 0.0
0.4 0.0222222	 0.0
0.422222 0	 0.0
0.444444 0	 0.0
0.444444 0.0222222	 0.0
0.422222 0.0222222	 0.0
0.444444 0	 0.0
0.466667 0	 0.0
0.466667 0.0222222	 0.0
0.444444 0.0222222	 0.0
0.466667 0	 0.0
0.488889 0	 0.0
0.488889 0.0222222	 0.0
0.466667 0.0222222	 0.0
0.488889 0	 0.0
0.511111 0	 0.0
0.511111 0.0222222	 0.0
0.488889 0.0222222	 0.0
0.511111 0	 0.0
0.533333 0	 0.0
0.533333 0.0222222	 0.0
0.511111 0.0222222	 0.0
0.533333 0	 0.0
0.555556 0	 0.0
0.555556 0.0222222	 0.0
0.533333 0.0222222	 0.0
0.555556 0	 0.0
0.577778 0	 0.0
0.577778 0.0222222	 0.0
0.555556 0.0222222	 0.0
0.577778 0	 0.0
0.6 0	 0.0
0.6 0.0222222	 0.0
0.577778 0.0222222	 0.0
0.6 0	 0.0
0.622222 0	 0.0
0.622222 0.0222222	 0.0
0.6 0.0222222	 0.0
0.622222 0	 0.0
0.644444 0	 0.0
0.644444 0.0222222	 0.0
0.622222 0.0222222	 0.0
0.644444 0	 0.0
0.666667 0	 0.0
0.666667 0.0222222	 0.0
0.644444 0.0222222	 0.0
0.666667 0	 0.0
0.688889 0	 0.0
0.688889 0.0222222	 0.0
0.666667 0.0222222	 0.0
0.688889 0	 0.0
0.711111 0	 0.0
0.711111 0.0222222	 0.0
0.688889 0.0222222	 0.0
0.711111 0	 0.0
0.733333 0	 0.0
0.733333 0.0222222	 0.0
0.711111 0.0222222	 0.0
0.733333 0	 0.0
0.755556 0	 0.0
0.755556 0.0222222	 0.0
0.733333 0.0222222	 0.0
0.755556 0	 0.0
0.777778 0	 0.0
0.777778 0.0222222	 0.0
0.755556 0.0222222	 0.0
0.777778 0	 0.0
0.8 0	 0.0
0.8 0.0222222	 0.0
0.777778 0.0222222	 0.0
0.8 0	 0.0
0.822222 0	 0.0
0.822222 0.0222222	 0.0
0.8 0.0222222	 0.0
0.822222 0	 0.0
0.844444 0	 0.0
0.844444 0.0222222	 0.0
0.822222 0.0222222	 0.0
0.844444 0	 0.0
0.866667 0	 0.0
0.866667 0.0222222	 0.0
0.844444 0.0222222	 0.0
0.866667 0	 0.0
0.888889 0	 0.0
0.888889 0.0222222	 0.0
0.866667 0.0222222	 0.0
0.888889 0	 0.0
0.911111 0	 0.0
0.911111 0.0222222	 0.0
0.888889 0.0222222	 0.0
0.911111 0	 0.0
0.933333 0	 0.0
0.933333 0.0222222	 0.0
0.911111 0.0222222	 0.0
0.933333 0	 0.0
0.955556 0	 0.0
0.955556 0.0222222	 0.0
0.933333 0.0222222	 0.0
0.955556 0	 0.0
0.977778 0	 0.0
0.977778 0.0222222	 0.0
0.955556 0.0222222	 0.0
0.977778 0	 0.0
1 0	 0.0
1 0.0222222	 0.0
0.977778 0.0222222	 0.0
1 0	 0.0
1.02222 0	 0.0
1.02222 0.0222222	 0.0
1 0.0222222	 0.0
1.02222 0	 0.0
1.04444 0	 0.0
1.04444 0.0222222	 0.0
1.02222 0.0222222	 0.0
1.04444 0	 0.0
1.06667 0	 0.0
1.06667 0.0222222	 0.0
1.04444 0.0222222	 0.0
1.06667 0	 0.0
1.08889 0	 0.0
1.08889 0.0222222	 0.0
1.06667 0.0222222	 0.0
1.08889 0	 0.0
1.11111 0	 0.0
1.11111 0.0222222	 0.0
1.08889 0.0222222	 0.0
1.11111 0	 0.0
1.13333 0	 0.0
1.13333 0.0222222	 0.0
1.11111 0.0222222	 0.0
1.13333 0	 0.0
1.15556 0	 0.0
1.15556 0.0222222	 0.0
1.13333 0.0222222	 0.0
1.15556 0	 0.0
1.17778 0	 0.0
1.17778 0.0222222	 0.0
1.15556 0.0222222	 0.0
1.17778 0	 0.0
1.2 0	 0.0
1.2 0.0222222	 0.0
1.17778 0.0222222	 0.0
1.2 0	 0.0
1.22222 0	 0.0
1.22222 0.0222222	 0.0
1.2 0.0222222	 0.0
1.22222 0	 0.0
1.24444 0	 0.0
1.24444 0.0222222	 0.0
1.22222 0.0222222	 0.0
1.24444 0	 0.0
1.26667 0	 0.0
1.26667 0.0222222	 0.0
1.24444 0.0222222	 0.0
1.26667 0	 0.0
1.28889 0	 0.0
1.28889 0.0222222	 0.0
1.26667 0.0222222	 0.0
1.28889 0	 0.0
1.31111 0	 0.0
1.31111 0.0222222	 0.0
1.28889 0.0222222	 0.0
1.31111 0	 0.0
1.33333 0	 0.0
1.33333 0.0222222	 0.0
1.31111 0.0222222	 0.0
1.33333 0	 0.0
1.35556 0	 0.0
1.35556 0.0222222	 0.0
1.33333 0.0222222	 0.0
1.35556 0	 0.0
1.37778 0	 0.0
1.37778 0.0222222	 0.0
1.35556 0.0222222	 0.0
1.37778 0	 0.0
1.4 0	 0.0
1.4 0.0222222	 0.0
1.37778 0.0222222	 0.0
1.4 0	 0.0
1.42222 0	 0.0
1.42222 0.0222222	 0.0
1.4 0.0222222	 0.0
1.42222 0	 0.0
1.44444 0	 0.0
1.44444 0.0222222	 0.0
1.42222 0.0222222	 0.0
1.44444 0	 0.0
1.46667 0	 0.0
1.46667 0.0222222	 0.0
1.44444 0.0222222	 0.0
1.46667 0	 0.0
1.48889 0	 0.0
1.48889 0.0222222	 0.0
1.46667 0.0222222	 0.0
1.48889 0	 0.0
1.51111 0	 0.0
1.51111 0.0222222	 0.0
1.48889 0.0222222	 0.0
1.51111 0	 0.0
1.53333 0	 0.0
1.53333 0.0222222	 0.0
1.51111 0.0222222	 0.0
1.53333 0	 0.0
1.55556 0	 0.0
1.55556 0.0222222	 0.0
1.53333 0.0222222	 0.0
1.55556 0	 0.0
1.57778 0	 0.0
1.57778 0.0222222	 0.0
1.55556 0.0222222	 0.0
1.57778 0	 0.0
1.6 0	 0.0
1.6 0.0222222	 0.0
1.57778 0.0222222	 0.0
1.6 0	 0.0
1.62222 0	 0.0
1.62222 0.0222222	 0.0
1.6 0.0222222	 0.0
1.62222 0	 0.0
1.64444 0	 0.0
1.64444 0.0222222	 0.0
1.62222 0.0222222	 0.0
1.64444 0	 0.0
1.66667 0	 0.0
1.66667 0.0222222	 0.0
1.64444 0.0222222	 0.0
1.66667 0	 0.0
1.68889 0	 0.0
1.68889 0.0222222	 0.0
1.66667 0.0222222	 0.0
1.68889 0	 0.0
1.71111 0	 0.0
1.71111 0.0222222	 0.0
1.68889 0.0222222	 0.0
1.71111 0	 0.0
1.73333 0	 0.0
1.73333 0.0222222	 0.0
1.71111 0.0222222	 0.0
1.73333 0	 0.0
1.75556 0	 0.0
1.75556 0.0222222	 0.0
1.73333 0.0222222	 0.0
1.75556 0	 0.0
1.77778 0	 0.0
1.77778 0.0222222	 0.0
1.75556 0.0222222	 0.0
1.77778 0	 0.0
1.8 0	 0.0
1.8 0.0222222	 0.0
1.77778 0.0222222	 0.0
1.8 0	 0.0
1.82222 0	 0.0
1.82222 0.0222222	 0.0
1.8 0.0222222	 0.0
1.82222 0	 0.0
1.84444 0	 0.0
1.84444 0.0222222	 0.0
1.82222 0.0222222	 0.0
1.84444 0	 0.0
1.86667 0	 0.0
1.86667 0.0222222	 0.0
1.84444 0.0222222	 0.0
1.86667 0	 0.0
1.88889 0	 0.0
1.88889 0.0222222	 0.0
1.86667 0.0222222	 0.0
1.88889 0	 0.0
1.91111 0	 0.0
1.91111 0.0222222	 0.0
1.88889 0.0222222	 0.0
1.91111 0	 0.0
1.93333 0	 0.0
1.93333 0.0222222	 0.0
1.91111 0.0222222	 0.0
1.93333 0	 0.0
1.95556 0	 0.0
1.95556 0.0222222	 0.0
1.93333 0.0222222	 0.0
1.95556 0	 0.0
1.97778 0	 0.0
1.97778 0.0222222	 0.0
1.95556 0.0222222	 0.0
1.97778 0	 0.0
2 0	 0.0
2 0.0222222	 0.0
1.97778 0.0222222	 0.0
2 0	 0.0
2.02222 0	 0.0
2.02222 0.0222222	 0.0
2 0.0222222	 0.0
2.02222 0	 0.0
2.04444 0	 0.0
2.04444 0.0222222	 0.0
2.02222 0.0222222	 0.0
2.04444 0	 0.0
2.06667 0	 0.0
2.06667 0.0222222	 0.0
2.04444 0.0222222	 0.0
2.06667 0	 0.0
2.08889 0	 0.0
2.08889 0.0222222	 0.0
2.06667 0.0222222	 0.0
2.08889 0	 0.0
2.11111 0	 0.0
2.11111 0.0222222	 0.0
2.08889 0.0222222	 0.0
2.11111 0	 0.0
2.13333 0	 0.0
2.13333 0.0222222	 0.0
2.11111 0.0222222	 0.0
2.13333 0	 0.0
2.15556 0	 0.0
2.15556 0.0222222	 0.0
2.13333 0.0222222	 0.0
2.15556 0	 0.0
2.17778 0	 0.0
2.17778 0.0222222	 0.0
2.15556 0.0222222	 0.0
2.17778 0	 0.0
2.2 0	 0.0
2.2 0.0222222	 0.0
2.17778 0.0222222	 0.0
2.2 0	 0.0
2.22222 0	 0.0
2.22222 0.0222222	 0.0
2.2 0.0222222	 0.0
2.22222 0	 0.0
2.24444 0	 0.0
2.24444 0.0222222	 0.0
2.22222 0.0222222	 0.0
2.24444 0	 0.0
2.26667 0	 0.0
2.26667 0.0222222	 0.0
2.24444 0.0222222	 0.0
2.26667 0	 0.0
2.28889 0	 0.0
2.28889 0.0222222	 0.0
2.26667 0.0222222	 0.0
2.28889 0	 0.0
2.31111 0	 0.0
2.31111 0.0222222	 0.0
2.28889 0.0222222	 0.0
2.31111 0	 0.0
2.33333 0	 0.0
2.33333 0.0222222	 0.0
2.31111 0.0222222	 0.0
2.33333 0	 0.0
2.35556 0	 0.0
2.35556 0.0222222	 0.0
2.33333 0.0222222	 0.0
2.35556 0	 0.0
2.37778 0	 0.0
2.37778 0.0222222	 0.0
2.35556 0.0222222	 0.0
2.37778 0	 0.0
2.4 0	 0.0
2.4 0.0222222	 0.0
2.37778 0.0222222	 0.0
2.4 0	 0.0
2.42222 0	 0.0
2.42222 0.0222222	 0.0
2.4 0.0222222	 0.0
2.42222 0	 0.0
2.44444 0	 0.0
2.44444 0.0222222	 0.0
2.42222 0.0222222	 0.0
2.44444 0	 0.0
2.46667 0	 0.0
2.46667 0.0222222	 0.0
2.44444 0.0222222	 0.0
2.46667 0	 0.0
2.48889 0	 0.0
2.48889 0.0222222	 0.0
2.46667 0.0222222	 0.0
2.48889 0	 0.0
2.51111 0	 0.0
2.51111 0.0222222	 0.0
2.48889 0.0222222	 0.0
2.51111 0	 0.0
2.53333 0	 0.0
2.53333 0.0222222	 0.0
2.51111 0.0222222	 0.0
2.53333 0	 0.0
2.55556 0	 0.0
2.55556 0.0222222	 0.0
2.53333 0.0222222	 0.0
2.55556 0	 0.0
2.57778 0	 0.0
2.57778 0.0222222	 0.0
2.55556 0.0222222	 0.0
2.57778 0	 0.0
2.6 0	 0.0
2.6 0.0222222	 0.0
2.57778 0.0222222	 0.0
2.6 0	 0.0
2.62222 0	 0.0
2.62222 0.0222222	 0.0
2.6 0.0222222	 0.0
2.62222 0	 0.0
2.64444 0	 0.0
2.64444 0.0222222	 0.0
2.62222 0.0222222	 0.0
2.64444 0	 0.0
2.66667 0	 0.0
2.66667 0.0222222	 0.0
2.64444 0.0222222	 0.0
2.66667 0	 0.0
2.68889 0	 0.0
2.68889 0.0222222	 0.0
2.66667 0.0222222	 0.0
2.68889 0	 0.0
2.71111 0	 0.0
2.71111 0.0222222	 0.0
2.68889 0.0222222	 0.0
2.71111 0	 0.0
2.73333 0	 0.0
2.73333 0.0222222	 0.0
2.71111 0.0222222	 0.0
2.73333 0	 0.0
2.75556 0	 0.0
2.75556 0.0222222	 0.0
2.73333 0.0222222	 0.0
2.75556 0	 0.0
2.77778 0	 0.0
2.77778 0.0222222	 0.0
2.75556 0.0222222	 0.0
2.77778 0	 0.0
2.8 0	 0.0
2.8 0.0222222	 0.0
2.77778 0.0222222	 0.0
2.8 0	 0.0
2.82222 0	 0.0
2.82222 0.0222222	 0.0
2.8 0.0222222	 0.0
2.82222 0	 0.0
2.84444 0	 0.0
2.84444 0.0222222	 0.0
2.82222 0.0222222	 0.0
2.84444 0	 0.0
2.86667 0	 0.0
2.86667 0.0222222	 0.0
2.84444 0.0222222	 0.0
2.86667 0	 0.0
2.88889 0	 0.0
2.88889 0.0222222	 0.0
2.86667 0.0222222	 0.0
2.88889 0	 0.0
2.91111 0	 0.0
2.91111 0.0222222	 0.0
2.88889 0.0222222	 0.0
2.91111 0	 0.0
[...]
POINT_DATA 23448
SCALARS levelset_first float
LOOKUP_TABLE default
-4.9063
-4.81161
-4.78544
-4.88012
-4.81161
-4.71791
-4.69174
-4.78544
-4.71791
-4.6252
-4.59903
-4.69174
-4.6252
-4.53348
-4.5073
-4.59903
-4.53348
-4.44274
-4.41657
-4.5073
-4.44274
-4.35299
-4.32682
-4.41657
-4.35299
-4.26423
-4.23806
-4.32682
-4.26423
-4.17646
-4.15028
-4.23806
-4.17646
-4.08967
-4.0635
-4.15028
-4.08967
-4.00387
-3.9777
-4.0635
-4.00387
-3.91906
-3.89289
-3.9777
-3.91906
-3.83524
-3.80907
-3.89289
-3.83524
-3.75241
-3.72623
-3.80907
-3.75241
-3.67056
-3.64439
-3.72623
-3.67056
-3.5897
-3.56353
-3.64439
-3.5897
-3.50983
-3.48365
-3.56353
-3.50983
-3.43094
-3.40477
-3.48365
-3.43094
-3.35305
-3.32687
-3.40477
-3.35305
-3.27614
-3.24996
-3.32687
-3.27614
-3.20022
-3.17404
-3.24996
-3.20022
-3.12528
-3.09911
-3.17404
-3.12528
-3.05134
-3.02516
-3.09911
-3.05134
-2.97838
-2.9522
-3.02516
-2.97838
-2.90641
-2.88023
-2.9522
-2.90641
-2.83542
-2.80925
-2.88023
-2.83542
-2.76543
-2.73926
-2.80925
-2.76543
-2.69642
-2.67025
-2.73926
-2.69642
-2.6284
-2.60223
-2.67025
-2.6284
-2.56137
-2.53519
-2.60223
-2.56137
-2.49532
-2.46915
-2.53519
-2.49532
-2.43027
-2.40409
-2.46915
-2.43027
-2.3662
-2.34002
-2.40409
-2.3662
-2.30311
-2.27694
-2.34002
-2.30311
-2.24102
-2.21485
-2.27694
-2.24102
-2.17991
-2.15374
-2.21485
-2.17991
-2.11979
-2.09362
-2.15374
-2.11979
-2.06066
-2.03449
-2.09362
-2.06066
-2.00252
-1.97635
-2.03449
-2.00252
-1.94536
-1.91919
-1.97635
-1.94536
-1.8892
-1.86302
-1.91919
-1.8892
-1.83401
-1.80784
-1.86302
-1.83401
-1.77982
-1.75365
-1.80784
-1.77982
-1.72662
-1.70044
-1.75365
-1.72662
-1.6744
-1.64823
-1.70044
-1.6744
-1.62317
-1.597
-1.64823
-1.62317
-1.57293
-1.54675
-1.597
-1.57293
-1.52367
-1.4975
-1.54675
-1.52367
-1.4754
-1.44923
-1.4975
-1.4754
-1.42813
-1.40195
-1.44923
-1.42813
-1.38183
-1.35566
-1.40195
-1.38183
-1.33653
-1.31036
-1.35566
-1.33653
-1.29221
-1.26604
-1.31036
-1.29221
-1.24888
-1.22271
-1.26604
-1.24888
-1.20654
-1.18037
-1.22271
-1.20654
-1.16519
-1.13902
-1.18037
-1.16519
-1.12482
-1.09865
-1.13902
-1.12482
-1.08545
-1.05927
-1.09865
-1.08545
-1.04706
-1.02088
-1.05927
-1.04706
-1.00965
-0.983479
-1.02088
-1.00965
-0.973237
-0.947064
-0.983479
-0.973237
-0.93781
-0.911637
-0.947064
-0.93781
-0.90337
-0.877197
-0.911637
-0.90337
-0.869917
-0.843745
-0.877197
-0.869917
-0.837453
-0.81128
-0.843745
-0.837453
-0.805976
-0.779803
-0.81128
-0.805976
-0.775487
-0.749314
-0.779803
-0.775487
-0.745985
-0.719812
-0.749314
-0.745985
-0.717471
-0.691298
-0.719812
-0.717471
-0.689945
-0.663772
-0.691298
-0.689945
-0.663406
-0.637233
-0.663772
-0.663406
-0.637855
-0.611682
-0.637233
-0.637855
-0.613292
-0.587119
-0.611682
-0.613292
-0.589716
-0.563543
-0.587119
-0.589716
-0.567128
-0.540955
-0.563543
-0.567128
-0.545528
-0.519355
-0.540955
-0.545528
-0.524915
-0.498742
-0.519355
-0.524915
-0.50529
-0.479117
-0.498742
-0.50529
-0.486652
-0.46048
-0.479117
-0.486652
-0.469003
-0.44283
-0.46048
-0.469003
-0.452341
-0.426168
-0.44283
-0.452341
-0.436666
-0.410493
-0.426168
-0.436666
-0.421979
-0.395806
-0.410493
-0.421979
-0.40828
-0.382107
-0.395806
-0.40828
-0.395569
-0.369396
-0.382107
-0.395569
-0.383845
-0.357672
-0.369396
-0.383845
-0.373109
-0.346936
-0.357672
-0.373109
-0.36336
-0.337187
-0.346936
-0.36336
-0.354599
-0.328426
-0.337187
-0.354599
-0.346826
-0.320653
-0.328426
-0.346826
-0.34004
-0.313868
-0.320653
-0.34004
-0.334243
-0.30807
-0.313868
-0.334243
-0.329432
-0.303259
-0.30807
-0.329432
-0.32561
-0.299437
-0.303259
-0.32561
-0.322775
-0.296602
-0.299437
-0.322775
-0.320927
-0.294755
-0.296602
-0.320927
-0.320068
-0.293895
-0.294755
-0.320068
-0.320196
-0.294023
-0.293895
-0.320196
-0.321311
-0.295139
-0.294023
-0.321311
-0.323415
-0.297242
-0.295139
-0.323415
-0.326506
-0.300333
-0.297242
-0.326506
-0.330584
-0.304412
-0.300333
-0.330584
-0.335651
-0.309478
-0.304412
-0.335651
-0.341705
-0.315532
-0.309478
-0.341705
-0.348746
-0.322573
-0.315532
-0.348746
-0.356775
-0.330603
-0.322573
-0.356775
-0.365792
-0.339619
-0.330603
-0.365792
-0.375797
-0.349624
-0.339619
-0.375797
-0.386789
-0.360616
-0.349624
-0.386789
-0.398769
-0.372596
-0.360616
-0.398769
-0.411736
-0.385564
-0.372596
-0.411736
-0.425692
-0.399519
-0.385564
-0.425692
-0.440634
-0.414462
-0.399519
-0.440634
-0.456565
-0.430392
-0.414462
-0.456565
-0.473483
-0.44731
-0.430392
-0.473483
-0.491389
-0.465216
-0.44731
-0.491389
-0.510282
-0.484109
-0.465216
-0.510282
-0.530163
-0.503991
-0.484109
-0.530163
-0.551032
-0.524859
-0.503991
-0.551032
-0.572889
-0.546716
-0.524859
-0.572889
-0.595733
-0.56956
-0.546716
-0.595733
-0.619564
-0.593392
-0.56956
-0.619564
-0.644384
-0.618211
-0.593392
-0.644384
-0.670191
-0.644018
-0.618211
-0.670191
-0.696985
-0.670813
-0.644018
-0.696985
-0.724768
-0.698595
-0.670813
-0.724768
-0.753538
-0.727365
-0.698595
-0.753538
-0.783295
-0.757123
-0.727365
-0.783295
-0.814041
-0.787868
-0.757123
-0.814041
-0.845774
-0.819601
-0.787868
-0.845774
-0.878494
-0.852321
-0.819601
-0.878494
-0.912202
-0.88603
-0.852321
-0.912202
-0.946898
-0.920726
-0.88603
-0.946898
-0.982582
-0.956409
-0.920726
-0.982582
-1.01925
-0.99308
-0.956409
-1.01925
-1.05691
-1.03074
-0.99308
-4.88012
-4.78544
-4.76025
-4.85494
-4.78544
-4.69174
-4.66655
-4.76025
-4.69174
-4.59903
-4.57384
-4.66655
-4.59903
-4.5073
-4.48212
-4.57384
-4.5073
-4.41657
-4.39138
-4.48212
-4.41657
-4.32682
-4.30163
-4.39138
-4.32682
-4.23806
-4.21287
-4.30163
-4.23806
-4.15028
-4.1251
-4.21287
-4.15028
-4.0635
-4.03831
-4.1251
-4.0635
-3.9777
-3.95252
-4.03831
-3.9777
-3.89289
-3.86771
-3.95252
-3.89289
-3.80907
-3.78388
-3.86771
-3.80907
-3.72623
-3.70105
-3.78388
-3.72623
-3.64439
-3.6192
-3.70105
-3.64439
-3.56353
-3.53834
-3.6192
-3.56353
-3.48365
-3.45847
-3.53834
-3.48365
-3.40477
-3.37958
-3.45847
-3.40477
-3.32687
-3.30169
-3.37958
-3.32687
-3.24996
-3.22478
-3.30169
-3.24996
-3.17404
-3.14886
-3.22478
-3.17404
-3.09911
-3.07392
-3.14886
-3.09911
-3.02516
-2.99998
-3.07392
-3.02516
-2.9522
-2.92702
-2.99998
-2.9522
-2.88023
-2.85505
-2.92702
-2.88023
-2.80925
-2.78407
-2.85505
-2.80925
-2.73926
-2.71407
-2.78407
-2.73926
-2.67025
-2.64506
-2.71407
-2.67025
-2.60223
-2.57704
-2.64506
-2.60223
-2.53519
-2.51001
-2.57704
-2.53519
-2.46915
-2.44396
-2.51001
-2.46915
-2.40409
-2.37891
-2.44396
-2.40409
-2.34002
-2.31484
-2.37891
-2.34002
-2.27694
-2.25176
-2.31484
-2.27694
-2.21485
-2.18966
-2.25176
-2.21485
-2.15374
-2.12856
-2.18966
-2.15374
-2.09362
-2.06844
-2.12856
-2.09362
-2.03449
-2.00931
-2.06844
-2.03449
-1.97635
-1.95116
-2.00931
-1.97635
-1.91919
-1.89401
-1.95116
-1.91919
-1.86302
-1.83784
-1.89401
-1.86302
-1.80784
-1.78266
-1.83784
-1.80784
-1.75365
-1.72846
-1.78266
-1.75365
-1.70044
-1.67526
-1.72846
-1.70044
-1.64823
-1.62304
-1.67526
-1.64823
-1.597
-1.57181
-1.62304
-1.597
-1.54675
-1.52157
-1.57181
-1.54675
-1.4975
-1.47231
-1.52157
-1.4975
-1.44923
-1.42405
-1.47231
-1.44923
-1.40195
-1.37677
-1.42405
-1.40195
-1.35566
-1.33048
-1.37677
-1.35566
-1.31036
-1.28517
-1.33048
-1.31036
-1.26604
-1.24085
-1.28517
-1.26604
-1.22271
-1.19753
-1.24085
-1.22271
-1.18037
-1.15519
-1.19753
-1.18037
-1.13902
-1.11383
-1.15519
-1.13902
-1.09865
-1.07347
-1.11383
-1.09865
-1.05927
-1.03409
-1.07347
-1.05927
-1.02088
-0.995697
-1.03409
-1.02088
-0.983479
-0.958294
-0.995697
-0.983479
-0.947064
-0.921879
-0.958294
-0.947064
-0.911637
-0.886452
-0.921879
-0.911637
-0.877197
-0.852012
-0.886452
-0.877197
-0.843745
-0.818559
-0.852012
-0.843745
-0.81128
-0.786095
-0.818559
-0.81128
-0.779803
-0.754618
-0.786095
-0.779803
-0.749314
-0.724129
-0.754618
-0.749314
-0.719812
-0.694627
-0.724129
-0.719812
-0.691298
-0.666113
-0.694627
-0.691298
-0.663772
-0.638587
-0.666113
-0.663772
-0.637233
-0.612048
-0.638587
-0.637233
-0.611682
-0.586497
-0.612048
-0.611682
-0.587119
-0.561934
-0.586497
-0.587119
-0.563543
-0.538358
-0.561934
-0.563543
-0.540955
-0.51577
-0.538358
-0.540955
-0.519355
-0.49417
-0.51577
-0.519355
-0.498742
-0.473557
-0.49417
-0.498742
-0.479117
-0.453932
-0.473557
-0.479117
-0.46048
-0.435294
-0.453932
-0.46048
-0.44283
-0.417645
-0.435294
-0.44283
-0.426168
-0.400983
-0.417645
-0.426168
-0.410493
-0.385308
-0.400983
-0.410493
-0.395806
-0.370621
-0.385308
-0.395806
-0.382107
-0.356922
-0.370621
-0.382107
-0.369396
-0.344211
-0.356922
-0.369396
-0.357672
-0.332487
-0.344211
-0.357672
-0.346936
-0.321751
-0.332487
-0.346936
-0.337187
-0.312002
-0.321751
-0.337187
-0.328426
-0.303241
-0.312002
-0.328426
-0.320653
-0.295468
-0.303241
-0.320653
-0.313868
-0.288682
-0.295468
-0.313868
-0.30807
-0.282884
-0.288682
-0.30807
-0.303259
-0.278074
-0.282884
-0.303259
-0.299437
-0.274252
-0.278074
-0.299437
-0.296602
-0.271417
-0.274252
-0.296602
-0.294755
-0.269569
-0.271417
-0.294755
-0.293895
-0.26871
-0.269569
-0.293895
-0.294023
-0.268838
-0.26871
-0.294023
-0.295139
-0.269953
-0.268838
-0.295139
-0.297242
-0.272057
-0.269953
-0.297242
-0.300333
-0.275148
-0.272057
-0.300333
-0.304412
-0.279226
-0.275148
-0.304412
-0.309478
-0.284293
-0.279226
-0.309478
-0.315532
-0.290347
-0.284293
-0.315532
-0.322573
-0.297388
-0.290347
-0.322573
-0.330603
-0.305417
-0.297388
-0.330603
-0.339619
-0.314434
-0.305417
-0.339619
-0.349624
-0.324439
-0.314434
-0.349624
-0.360616
-0.335431
-0.324439
-0.360616
-0.372596
-0.347411
-0.335431
-0.372596
-0.385564
-0.360378
-0.347411
-0.385564
-0.399519
-0.374334
-0.360378
-0.399519
-0.414462
-0.389276
-0.374334
-0.414462
-0.430392
-0.405207
-0.389276
-0.430392
-0.44731
-0.422125
-0.405207
-0.44731
-0.465216
-0.440031
-0.422125
-0.465216
-0.484109
-0.458924
-0.440031
-0.484109
-0.503991
-0.478805
-0.458924
-0.503991
-0.524859
-0.499674
-0.478805
-0.524859
-0.546716
-0.521531
-0.499674
-0.546716
-0.56956
-0.544375
-0.521531
-0.56956
-0.593392
-0.568206
-0.544375
-0.593392
-0.618211
-0.593026
-0.568206
-0.618211
-0.644018
-0.618833
-0.593026
-0.644018
-0.670813
-0.645627
-0.618833
-0.670813
-0.698595
-0.67341
-0.645627
-0.698595
-0.727365
-0.70218
-0.67341
-0.727365
-0.757123
-0.731937
-0.70218
-0.757123
-0.787868
-0.762683
-0.731937
-0.787868
-0.819601
-0.794416
-0.762683
-0.819601
-0.852321
-0.827136
-0.794416
-0.852321
-0.88603
-0.860844
-0.827136
-0.88603
-0.920726
-0.89554
-0.860844
-0.920726
-0.956409
-0.931224
-0.89554
-0.956409
-0.99308
-0.967895
-0.931224
-0.99308
-1.03074
-1.00555
-0.967895
-4.85494
-4.76025
-4.73605
-4.83074
-4.76025
-4.66655
-4.64236
-4.73605
-4.66655
-4.57384
-4.54964
-4.64236
-4.57384
-4.48212
-4.45792
-4.54964
-4.48212
-4.39138
-4.36718
-4.45792
-4.39138
-4.30163
-4.27744
-4.36718
-4.30163
-4.21287
-4.18867
-4.27744
-4.21287
-4.1251
-4.1009
-4.18867
-4.1251
-4.03831
-4.01412
-4.1009
-4.03831
-3.95252
-3.92832
-4.01412
-3.95252
-3.86771
-3.84351
-3.92832
-3.86771
-3.78388
-3.75969
-3.84351
-3.78388
-3.70105
-3.67685
-3.75969
-3.70105
-3.6192
-3.595
-3.67685
-3.6192
-3.53834
-3.51414
-3.595
-3.53834
-3.45847
-3.43427
-3.51414
-3.45847
-3.37958
-3.35539
-3.43427
-3.37958
-3.30169
-3.27749
-3.35539
-3.30169
-3.22478
-3.20058
-3.27749
-3.22478
-3.14886
-3.12466
-3.20058
-3.14886
-3.07392
-3.04973
-3.12466
-3.07392
-2.99998
-2.97578
-3.04973
-2.99998
-2.92702
-2.90282
-2.97578
-2.92702
-2.85505
-2.83085
-2.90282
-2.85505
-2.78407
-2.75987
-2.83085
-2.78407
-2.71407
-2.68987
-2.75987
-2.71407
-2.64506
-2.62086
-2.68987
-2.64506
-2.57704
-2.55284
-2.62086
-2.57704
-2.51001
-2.48581
-2.55284
-2.51001
-2.44396
-2.41977
-2.48581
-2.44396
-2.37891
-2.35471
-2.41977
-2.37891
-2.31484
-2.29064
-2.35471
-2.31484
-2.25176
-2.22756
-2.29064
-2.25176
-2.18966
-2.16546
-2.22756
-2.18966
-2.12856
-2.10436
-2.16546
-2.12856
-2.06844
-2.04424
-2.10436
-2.06844
-2.00931
-1.98511
-2.04424
-2.00931
-1.95116
-1.92696
-1.98511
-1.95116
-1.89401
-1.86981
-1.92696
-1.89401
-1.83784
-1.81364
-1.86981
-1.83784
-1.78266
-1.75846
-1.81364
-1.78266
-1.72846
-1.70427
-1.75846
-1.72846
-1.67526
-1.65106
-1.70427
-1.67526
-1.62304
-1.59884
-1.65106
-1.62304
-1.57181
-1.54761
-1.59884
-1.57181
-1.52157
-1.49737
-1.54761
-1.52157
-1.47231
-1.44812
-1.49737
-1.47231
-1.42405
-1.39985
-1.44812
-1.42405
-1.37677
-1.35257
-1.39985
-1.37677
-1.33048
-1.30628
-1.35257
-1.33048
-1.28517
-1.26097
-1.30628
-1.28517
-1.24085
-1.21666
-1.26097
-1.24085
-1.19753
-1.17333
-1.21666
-1.19753
-1.15519
-1.13099
-1.17333
-1.15519
-1.11383
-1.08963
-1.13099
-1.11383
-1.07347
-1.04927
-1.08963
-1.07347
-1.03409
-1.00989
-1.04927
-1.03409
-0.995697
-0.9715
-1.00989
-0.995697
-0.958294
-0.934097
-0.9715
-0.958294
-0.921879
-0.897682
-0.934097
-0.921879
-0.886452
-0.862254
-0.897682
-0.886452
-0.852012
-0.827814
-0.862254
-0.852012
-0.818559
-0.794362
-0.827814
-0.818559
-0.786095
-0.761897
-0.794362
-0.786095
-0.754618
-0.73042
-0.761897
-0.754618
-0.724129
-0.699931
-0.73042
-0.724129
-0.694627
-0.670429
-0.699931
-0.694627
-0.666113
-0.641916
-0.670429
-0.666113
-0.638587
-0.614389
-0.641916
-0.638587
-0.612048
-0.587851
-0.614389
-0.612048
-0.586497
-0.5623
-0.587851
-0.586497
-0.561934
-0.537736
-0.5623
-0.561934
-0.538358
-0.514161
-0.537736
-0.538358
-0.51577
-0.491572
-0.514161
-0.51577
-0.49417
-0.469972
-0.491572
-0.49417
-0.473557
-0.449359
-0.469972
-0.473557
-0.453932
-0.429734
-0.449359
-0.453932
-0.435294
-0.411097
-0.429734
-0.435294
-0.417645
-0.393447
-0.411097
-0.417645
-0.400983
-0.376785
-0.393447
-0.400983
-0.385308
-0.361111
-0.376785
-0.385308
-0.370621
-0.346424
-0.361111
-0.370621
-0.356922
-0.332725
-0.346424
-0.356922
-0.344211
-0.320013
-0.332725
-0.344211
-0.332487
-0.308289
-0.320013
-0.332487
-0.321751
-0.297553
-0.308289
-0.321751
-0.312002
-0.287805
-0.297553
-0.312002
-0.303241
-0.279044
-0.287805
-0.303241
-0.295468
-0.27127
-0.279044
-0.295468
-0.288682
-0.264485
-0.27127
-0.288682
-0.282884
-0.258687
-0.264485
-0.282884
-0.278074
-0.253877
-0.258687
-0.278074
-0.274252
-0.250054
-0.253877
-0.274252
-0.271417
-0.247219
-0.250054
-0.271417
-0.269569
-0.245372
-0.247219
-0.269569
-0.26871
-0.244512
-0.245372
-0.26871
-0.268838
-0.24464
-0.244512
-0.268838
-0.269953
-0.245756
-0.24464
-0.269953
-0.272057
-0.247859
-0.245756
-0.272057
-0.275148
-0.25095
-0.247859
-0.275148
-0.279226
-0.255029
-0.25095
-0.279226
-0.284293
-0.260095
-0.255029
-0.284293
-0.290347
-0.266149
-0.260095
-0.290347
-0.297388
-0.273191
-0.266149
-0.297388
-0.305417
-0.28122
-0.273191
-0.305417
-0.314434
-0.290237
-0.28122
-0.314434
-0.324439
-0.300241
-0.290237
-0.324439
-0.335431
-0.311234
-0.300241
-0.335431
-0.347411
-0.323213
-0.311234
-0.347411
-0.360378
-0.336181
-0.323213
-0.360378
-0.374334
-0.350136
-0.336181
-0.374334
-0.389276
-0.365079
-0.350136
-0.389276
-0.405207
-0.381009
-0.365079
-0.405207
-0.422125
-0.397928
-0.381009
-0.422125
-0.440031
-0.415833
-0.397928
-0.440031
-0.458924
-0.434727
-0.415833
-0.458924
-0.478805
-0.454608
-0.434727
-0.478805
-0.499674
-0.475477
-0.454608
-0.499674
-0.521531
-0.497333
-0.475477
-0.521531
-0.544375
-0.520177
-0.497333
-0.544375
-0.568206
-0.544009
-0.520177
-0.568206
-0.593026
-0.568828
-0.544009
-0.593026
-0.618833
-0.594635
-0.568828
-0.618833
-0.645627
-0.62143
-0.594635
-0.645627
-0.67341
-0.649212
-0.62143
-0.67341
-0.70218
-0.677982
-0.649212
-0.70218
-0.731937
-0.70774
-0.677982
-0.731937
-0.762683
-0.738485
-0.70774
-0.762683
-0.794416
-0.770218
-0.738485
-0.794416
-0.827136
-0.802939
-0.770218
-0.827136
-0.860844
-0.836647
-0.802939
-0.860844
-0.89554
-0.871343
-0.836647
-0.89554
-0.931224
-0.907026
-0.871343
-0.931224
-0.967895
-0.943698
-0.907026
-0.967895
-1.00555
-0.981357
-0.943698
-4.83074
-4.73605
-4.71284
-4.80753
-4.73605
-4.64236
-4.61915
-4.71284
-4.64236
-4.54964
-4.52643
-4.61915
-4.54964
-4.45792
-4.43471
-4.52643
-4.45792
-4.36718
-4.34397
-4.43471
-4.36718
-4.27744
-4.25423
-4.34397
-4.27744
-4.18867
-4.16546
-4.25423
-4.18867
-4.1009
-4.07769
-4.16546
-4.1009
-4.01412
-3.99091
-4.07769
-4.01412
-3.92832
-3.90511
-3.99091
-3.92832
-3.84351
-3.8203
-3.90511
-3.84351
-3.75969
-3.73648
-3.8203
-3.75969
-3.67685
-3.65364
-3.73648
-3.67685
-3.595
-3.57179
-3.65364
-3.595
-3.51414
-3.49093
-3.57179
-3.51414
-3.43427
-3.41106
-3.49093
-3.43427
-3.35539
-3.33218
-3.41106
-3.35539
-3.27749
-3.25428
-3.33218
-3.27749
-3.20058
-3.17737
-3.25428
-3.20058
-3.12466
-3.10145
-3.17737
-3.12466
-3.04973
-3.02652
-3.10145
-3.04973
-2.97578
-2.95257
-3.02652
-2.97578
-2.90282
-2.87961
-2.95257
-2.90282
-2.83085
-2.80764
-2.87961
-2.83085
-2.75987
-2.73666
-2.80764
-2.75987
-2.68987
-2.66666
-2.73666
-2.68987
-2.62086
-2.59765
-2.66666
-2.62086
-2.55284
-2.52963
-2.59765
-2.55284
-2.48581
-2.4626
-2.52963
-2.48581
-2.41977
-2.39656
-2.4626
-2.41977
-2.35471
-2.3315
-2.39656
-2.35471
-2.29064
-2.26743
-2.3315
-2.29064
-2.22756
-2.20435
-2.26743
-2.22756
-2.16546
-2.14225
-2.20435
-2.16546
-2.10436
-2.08115
-2.14225
-2.10436
-2.04424
-2.02103
-2.08115
-2.04424
-1.98511
-1.9619
-2.02103
-1.98511
-1.92696
-1.90375
-1.9619
-1.92696
-1.86981
-1.8466
-1.90375
-1.86981
-1.81364
-1.79043
-1.8466
-1.81364
-1.75846
-1.73525
-1.79043
-1.75846
-1.70427
-1.68106
-1.73525
-1.70427
-1.65106
-1.62785
-1.68106
-1.65106
-1.59884
-1.57563
-1.62785
-1.59884
-1.54761
-1.5244
-1.57563
-1.54761
-1.49737
-1.47416
-1.5244
-1.49737
-1.44812
-1.42491
-1.47416
-1.44812
-1.39985
-1.37664
-1.42491
-1.39985
-1.35257
-1.32936
-1.37664
-1.35257
-1.30628
-1.28307
-1.32936
-1.30628
-1.26097
-1.23776
-1.28307
-1.26097
-1.21666
-1.19345
-1.23776
-1.21666
-1.17333
-1.15012
-1.19345
-1.17333
-1.13099
-1.10778
-1.15012
-1.13099
-1.08963
-1.06642
-1.10778
-1.08963
-1.04927
-1.02606
-1.06642
-1.04927
-1.00989
-0.98668
-1.02606
-1.00989
-0.9715
-0.94829
-0.98668
-0.9715
-0.934097
-0.910887
-0.94829
-0.934097
-0.897682
-0.874472
-0.910887
-0.897682
-0.862254
-0.839044
-0.874472
-0.862254
-0.827814
-0.804604
-0.839044
-0.827814
-0.794362
-0.771152
-0.804604
-0.794362
-0.761897
-0.738687
-0.771152
-0.761897
-0.73042
-0.70721
-0.738687
-0.73042
-0.699931
-0.676721
-0.70721
-0.699931
-0.670429
-0.64722
-0.676721
-0.670429
-0.641916
-0.618706
-0.64722
-0.641916
-0.614389
-0.591179
-0.618706
-0.614389
-0.587851
-0.564641
-0.591179
-0.587851
-0.5623
-0.53909
-0.564641
-0.5623
-0.537736
-0.514526
-0.53909
-0.537736
-0.514161
-0.490951
-0.514526
-0.514161
-0.491572
-0.468363
-0.490951
-0.491572
-0.469972
-0.446762
-0.468363
-0.469972
-0.449359
-0.426149
-0.446762
-0.449359
-0.429734
-0.406524
-0.426149
-0.429734
-0.411097
-0.387887
-0.406524
-0.411097
-0.393447
-0.370237
-0.387887
-0.393447
-0.376785
-0.353575
-0.370237
-0.376785
-0.361111
-0.337901
-0.353575
-0.361111
-0.346424
-0.323214
-0.337901
-0.346424
-0.332725
-0.309515
-0.323214
-0.332725
-0.320013
-0.296803
-0.309515
-0.320013
-0.308289
-0.285079
-0.296803
-0.308289
-0.297553
-0.274343
-0.285079
-0.297553
-0.287805
-0.264595
-0.274343
-0.287805
-0.279044
-0.255834
-0.264595
-0.279044
-0.27127
-0.248061
-0.255834
-0.27127
-0.264485
-0.241275
-0.248061
-0.264485
-0.258687
-0.235477
-0.241275
-0.258687
-0.253877
-0.230667
-0.235477
-0.253877
-0.250054
-0.226844
-0.230667
-0.250054
-0.247219
-0.224009
-0.226844
-0.247219
-0.245372
-0.222162
-0.224009
-0.245372
-0.244512
-0.221302
-0.222162
-0.244512
-0.24464
-0.22143
-0.221302
-0.24464
-0.245756
-0.222546
-0.22143
-0.245756
-0.247859
-0.224649
-0.222546
-0.247859
-0.25095
-0.22774
-0.224649
-0.25095
-0.255029
-0.231819
-0.22774
-0.255029
-0.260095
-0.236885
-0.231819
-0.260095
-0.266149
-0.242939
-0.236885
-0.266149
-0.273191
-0.249981
-0.242939
-0.273191
-0.28122
-0.25801
-0.249981
-0.28122
-0.290237
-0.267027
-0.25801
-0.290237
-0.300241
-0.277031
-0.267027
-0.300241
-0.311234
-0.288024
-0.277031
-0.311234
-0.323213
-0.300004
-0.288024
-0.323213
-0.336181
-0.312971
-0.300004
-0.336181
-0.350136
-0.326926
-0.312971
-0.350136
-0.365079
-0.341869
-0.326926
-0.365079
-0.381009
-0.3578
-0.341869
-0.381009
-0.397928
-0.374718
-0.3578
-0.397928
-0.415833
-0.392623
-0.374718
-0.415833
-0.434727
-0.411517
-0.392623
-0.434727
-0.454608
-0.431398
-0.411517
-0.454608
-0.475477
-0.452267
-0.431398
-0.475477
-0.497333
-0.474123
-0.452267
-0.497333
-0.520177
-0.496967
-0.474123
-0.520177
-0.544009
-0.520799
-0.496967
-0.544009
-0.568828
-0.545618