# vtk DataFile Version 1.0
unstructured Grid
ASCII
DATASET UNSTRUCTURED_GRID
POINTS 23448 float 
0 0	 0.0
0.0222222 0	 0.0
0.0222222 0.0222222	 0.0
0 0.0222222	 0.0
0.0222222 0	 0.0
0.0444444 0	 0.0
0.0444444 0.0222222	 0.0
0.0222222 0.0222222	 0.0
0.0444444 0	 0.0
0.0666667 0	 0.0
0.0666667 0.0222222	 0.0
0.0444444 0.0222222	 0.0
0.0666667 0	 0.0
0.0888889 0	 0.0
0.0888889 0.0222222	 0.0
0.0666667 0.0222222	 0.0
0.0888889 0	 0.0
0.111111 0	 0.0
0.111111 0.0222222	 0.0
0.0888889 0.0222222	 0.0
0.111111 0	 0.0
0.133333 0	 0.0
0.133333 0.0222222	 0.0
0.111111 0.0222222	 0.0
0.133333 0	 0.0
0.155556 0	 0.0
0.155556 0.0222222	 0.0
0.133333 0.0222222	 0.0
0.155556 0	 0.0
0.177778 0	 0.0
0.177778 0.0222222	 0.0
0.155556 0.0222222	 0.0
0.177778 0	 0.0
0.2 0	 0.0
0.2 0.0222222	 0.0
0.177778 0.0222222	 0.0
0.2 0	 0.0
0.222222 0	 0.0
0.222222 0.0222222	 0.0
0.2 0.0222222	 0.0
0.222222 0	 0.0
0.244444 0	 0.0
0.244444 0.0222222	 0.0
0.222222 0.0222222	 0.0
0.244444 0	 0.0
0.266667 0	 0.0
0.266667 0.0222222	 0.0
0.244444 0.0222222	 0.0
0.266667 0	 0.0
0.288889 0	 0.0
0.288889 0.0222222	 0.0
0.266667 0.0222222	 0.0
0.288889 0	 0.0
0.311111 0	 0.0
0.311111 0.0222222	 0.0
0.288889 0.0222222	 0.0
0.311111 0	 0.0
0.333333 0	 0.0
0.333333 0.0222222	 0.0
0.311111 0.0222222	 0.0
0.333333 0	 0.0
0.355556 0	 0.0
0.355556 0.0222222	 0.0
0.333333 0.0222222	 0.0
0.355556 0	 0.0
0.377778 0	 0.0
0.377778 0.0222222	 0.0
0.355556 0.0222222	 0.0
0.377778 0	 0.0
0.4 0	 0.0
0.4 0.0222222	 0.0
0.377778 0.0222222	 0.0
0.4 0	 0.0
0.422222 0	 0.0
0.422222 0.0222222	 0.0
0.4 0.0222222	 0.0
0.422222 0	 0.0
0.444444 0	 0.0
0.444444 0.0222222	 0.0
0.422222 0.0222222	 0.0
0.444444 0	 0.0
0.466667 0	 0.0
0.466667 0.0222222	 0.0
0.444444 0.0222222	 0.0
0.466667 0	 0.0
0.488889 0	 0.0
0.488889 0.0222222	 0.0
0.466667 0.0222222	 0.0
0.488889 0	 0.0
0.511111 0	 0.0
0.511111 0.0222222	 0.0
0.488889 0.0222222	 0.0
0.511111 0	 0.0
0.533333 0	 0.0
0.533333 0.0222222	 0.0
0.511111 0.0222222	 0.0
0.533333 0	 0.0
0.555556 0	 0.0
0.555556 0.0222222	 0.0
0.533333 0.0222222	 0.0
0.555556 0	 0.0
0.577778 0	 0.0
0.577778 0.0222222	 0.0
0.555556 0.0222222	 0.0
0.577778 0	 0.0
0.6 0	 0.0
0.6 0.0222222	 0.0
0.577778 0.0222222	 0.0
0.6 0	 0.0
0.622222 0	 0.0
0.622222 0.0222222	 0.0
0.6 0.0222222	 0.0
0.622222 0	 0.0
0.644444 0	 0.0
0.644444 0.0222222	 0.0
0.622222 0.0222222	 0.0
0.644444 0	 0.0
0.666667 0	 0.0
0.666667 0.0222222	 0.0
0.644444 0.0222222	 0.0
0.666667 0	 0.0
0.688889 0	 0.0
0.688889 0.0222222	 0.0
0.666667 0.0222222	 0.0
0.688889 0	 0.0
0.711111 0	 0.0
0.711111 0.0222222	 0.0
0.688889 0.0222222	 0.0
0.711111 0	 0.0
0.733333 0	 0.0
0.733333 0.0222222	 0.0
0.711111 0.0222222	 0.0
0.733333 0	 0.0
0.755556 0	 0.0
0.755556 0.0222222	 0.0
0.733333 0.0222222	 0.0
0.755556 0	 0.0
0.777778 0	 0.0
0.777778 0.0222222	 0.0
0.755556 0.0222222	 0.0
0.777778 0	 0.0
0.8 0	 0.0
0.8 0.0222222	 0.0
0.777778 0.0222222	 0.0
0.8 0	 0.0
0.822222 0	 0.0
0.822222 0.0222222	 0.0
0.8 0.0222222	 0.0
0.822222 0	 0.0
0.844444 0	 0.0
0.844444 0.0222222	 0.0
0.822222 0.0222222	 0.0
0.844444 0	 0.0
0.866667 0	 0.0
0.866667 0.0222222	 0.0
0.844444 0.0222222	 0.0
0.866667 0	 0.0
0.888889 0	 0.0
0.888889 0.0222222	 0.0
0.866667 0.0222222	 0.0
0.888889 0	 0.0
0.911111 0	 0.0
0.911111 0.0222222	 0.0
0.888889 0.0222222	 0.0
0.911111 0	 0.0
0.933333 0	 0.0
0.933333 0.0222222	 0.0
0.911111 0.0222222	 0.0
0.933333 0	 0.0
0.955556 0	 0.0
0.955556 0.0222222	 0.0
0.933333 0.0222222	 0.0
0.955556 0	 0.0
0.977778 0	 0.0
0.977778 0.0222222	 0.0
0.955556 0.0222222	 0.0
0.977778 0	 0.0
1 0	 0.0
1 0.0222222	 0.0
0.977778 0.0222222	 0.0
1 0	 0.0
1.02222 0	 0.0
1.02222 0.0222222	 0.0
1 0.0222222	 0.0
1.02222 0	 0.0
1.04444 0	 0.0
1.04444 0.0222222	 0.0
1.02222 0.0222222	 0.0
1.04444 0	 0.0
1.06667 0	 0.0
1.06667 0.0222222	 0.0
1.04444 0.0222222	 0.0
1.06667 0	 0.0
1.08889 0	 0.0
1.08889 0.0222222	 0.0
1.06667 0.0222222	 0.0
1.08889 0	 0.0
1.11111 0	 0.0
1.11111 0.0222222	 0.0
1.08889 0.0222222	 0.0
1.11111 0	 0.0
1.13333 0	 0.0
1.13333 0.0222222	 0.0
1.11111 0.0222222	 0.0
1.13333 0	 0.0
1.15556 0	 0.0
1.15556 0.0222222	 0.0
1.13333 0.0222222	 0.0
1.15556 0	 0.0
1.17778 0	 0.0
1.17778 0.0222222	 0.0
1.15556 0.0222222	 0.0
1.17778 0	 0.0
1.2 0	 0.0
1.2 0.0222222	 0.0
1.17778 0.0222222	 0.0
1.2 0	 0.0
1.22222 0	 0.0
1.22222 0.0222222	 0.0
1.2 0.0222222	 0.0
1.22222 0	 0.0
1.24444 0	 0.0
1.24444 0.0222222	 0.0
1.22222 0.0222222	 0.0
1.24444 0	 0.0
1.26667 0	 0.0
1.26667 0.0222222	 0.0
1.24444 0.0222222	 0.0
1.26667 0	 0.0
1.28889 0	 0.0
1.28889 0.0222222	 0.0
1.26667 0.0222222	 0.0
1.28889 0	 0.0
1.31111 0	 0.0
1.31111 0.0222222	 0.0
1.28889 0.0222222	 0.0
1.31111 0	 0.0
1.33333 0	 0.0
1.33333 0.0222222	 0.0
1.31111 0.0222222	 0.0
1.33333 0	 0.0
1.35556 0	 0.0
1.35556 0.0222222	 0.0
1.33333 0.0222222	 0.0
1.35556 0	 0.0
1.37778 0	 0.0
1.37778 0.0222222	 0.0
1.35556 0.0222222	 0.0
1.37778 0	 0.0
1.4 0	 0.0
1.4 0.0222222	 0.0
1.37778 0.0222222	 0.0
1.4 0	 0.0
1.42222 0	 0.0
1.42222 0.0222222	 0.0
1.4 0.0222222	 0.0
1.42222 0	 0.0
1.44444 0	 0.0
1.44444 0.0222222	 0.0
1.42222 0.0222222	 0.0
1.44444 0	 0.0
1.46667 0	 0.0
1.46667 0.0222222	 0.0
1.44444 0.0222222	 0.0
1.46667 0	 0.0
1.48889 0	 0.0
1.48889 0.0222222	 0.0
1.46667 0.0222222	 0.0
1.48889 0	 0.0
1.51111 0	 0.0
1.51111 0.0222222	 0.0
1.48889 0.0222222	 0.0
1.51111 0	 0.0
1.53333 0	 0.0
1.53333 0.0222222	 0.0
1.51111 0.0222222	 0.0
1.53333 0	 0.0
1.55556 0	 0.0
1.55556 0.0222222	 0.0
1.53333 0.0222222	 0.0
1.55556 0	 0.0
1.57778 0	 0.0
1.57778 0.0222222	 0.0
1.55556 0.0222222	 0.0
1.57778 0	 0.0
1.6 0	 0.0
1.6 0.0222222	 0.0
1.57778 0.0222222	 0.0
1.6 0	 0.0
1.62222 0	 0.0
1.62222 0.0222222	 0.0
1.6 0.0222222	 0.0
1.62222 0	 0.0
1.64444 0	 0.0
1.64444 0.0222222	 0.0
1.62222 0.0222222	 0.0
1.64444 0	 0.0
1.66667 0	 0.0
1.66667 0.0222222	 0.0
1.64444 0.0222222	 0.0
1.66667 0	 0.0
1.68889 0	 0.0
1.68889 0.0222222	 0.0
1.66667 0.0222222	 0.0
1.68889 0	 0.0
1.71111 0	 0.0
1.71111 0.0222222	 0.0
1.68889 0.0222222	 0.0
1.71111 0	 0.0
1.73333 0	 0.0
1.73333 0.0222222	 0.0
1.71111 0.0222222	 0.0
1.73333 0	 0.0
1.75556 0	 0.0
1.75556 0.0222222	 0.0
1.73333 0.0222222	 0.0
1.75556 0	 0.0
1.77778 0	 0.0
1.77778 0.0222222	 0.0
1.75556 0.0222222	 0.0
1.77778 0	 0.0
1.8 0	 0.0
1.8 0.0222222	 0.0
1.77778 0.0222222	 0.0
1.8 0	 0.0
1.82222 0	 0.0
1.82222 0.0222222	 0.0
1.8 0.0222222	 0.0
1.82222 0	 0.0
1.84444 0	 0.0
1.84444 0.0222222	 0.0
1.82222 0.0222222	 0.0
1.84444 0	 0.0
1.86667 0	 0.0
1.86667 0.0222222	 0.0
1.84444 0.0222222	 0.0
1.86667 0	 0.0
1.88889 0	 0.0
1.88889 0.0222222	 0.0
1.86667 0.0222222	 0.0
1.88889 0	 0.0
1.91111 0	 0.0
1.91111 0.0222222	 0.0
1.88889 0.0222222	 0.0
1.91111 0	 0.0
1.93333 0	 0.0
1.93333 0.0222222	 0.0
1.91111 0.0222222	 0.0
1.93333 0	 0.0
1.95556 0	 0.0
1.95556 0.0222222	 0.0
1.93333 0.0222222	 0.0
1.95556 0	 0.0
1.97778 0	 0.0
1.97778 0.0222222	 0.0
1.95556 0.0222222	 0.0
1.97778 0	 0.0
2 0	 0.0
2 0.0222222	 0.0
1.97778 0.0222222	 0.0
2 0	 0.0
2.02222 0	 0.0
2.02222 0.0222222	 0.0
2 0.0222222	 0.0
2.02222 0	 0.0
2.04444 0	 0.0
2.04444 0.0222222	 0.0
2.02222 0.0222222	 0.0
2.04444 0	 0.0
2.06667 0	 0.0
2.06667 0.0222222	 0.0
2.04444 0.0222222	 0.0
2.06667 0	 0.0
2.08889 0	 0.0
2.08889 0.0222222	 0.0
2.06667 0.0222222	 0.0
2.08889 0	 0.0
2.11111 0	 0.0
2.11111 0.0222222	 0.0
2.08889 0.0222222	 0.0
2.11111 0	 0.0
2.13333 0	 0.0
2.13333 0.0222222	 0.0
2.11111 0.0222222	 0.0
2.13333 0	 0.0
2.15556 0	 0.0
2.15556 0.0222222	 0.0
2.13333 0.0222222	 0.0
2.15556 0	 0.0
2.17778 0	 0.0
2.17778 0.0222222	 0.0
2.15556 0.0222222	 0.0
2.17778 0	 0.0
2.2 0	 0.0
2.2 0.0222222	 0.0
2.17778 0.0222222	 0.0
2.2 0	 0.0
2.22222 0	 0.0
2.22222 0.0222222	 0.0
2.2 0.0222222	 0.0
2.22222 0	 0.0
2.24444 0	 0.0
2.24444 0.0222222	 0.0
2.22222 0.0222222	 0.0
2.24444 0	 0.0
2.26667 0	 0.0
2.26667 0.0222222	 0.0
2.24444 0.0222222	 0.0
2.26667 0	 0.0
2.28889 0	 0.0
2.28889 0.0222222	 0.0
2.26667 0.0222222	 0.0
2.28889 0	 0.0
2.31111 0	 0.0
2.31111 0.0222222	 0.0
2.28889 0.0222222	 0.0
2.31111 0	 0.0
2.33333 0	 0.0
2.33333 0.0222222	 0.0
2.31111 0.0222222	 0.0
2.33333 0	 0.0
2.35556 0	 0.0
2.35556 0.0222222	 0.0
2.33333 0.0222222	 0.0
2.35556 0	 0.0
2.37778 0	 0.0
2.37778 0.0222222	 0.0
2.35556 0.0222222	 0.0
2.37778 0	 0.0
2.4 0	 0.0
2.4 0.0222222	 0.0
2.37778 0.0222222	 0.0
2.4 0	 0.0
2.42222 0	 0.0
2.42222 0.0222222	 0.0
2.4 0.0222222	 0.0
2.42222 0	 0.0
2.44444 0	 0.0
2.44444 0.0222222	 0.0
2.42222 0.0222222	 0.0
2.44444 0	 0.0
2.46667 0	 0.0
2.46667 0.0222222	 0.0
2.44444 0.0222222	 0.0
2.46667 0	 0.0
2.48889 0	 0.0
2.48889 0.0222222	 0.0
2.46667 0.0222222	 0.0
2.48889 0	 0.0
2.51111 0	 0.0
2.51111 0.0222222	 0.0
2.48889 0.0222222	 0.0
2.51111 0	 0.0
2.53333 0	 0.0
2.53333 0.0222222	 0.0
2.51111 0.0222222	 0.0
2.53333 0	 0.0
2.55556 0	 0.0
2.55556 0.0222222	 0.0
2.53333 0.0222222	 0.0
2.55556 0	 0.0
2.57778 0	 0.0
2.57778 0.0222222	 0.0
2.55556 0.0222222	 0.0
2.57778 0	 0.0
2.6 0	 0.0
2.6 0.0222222	 0.0
2.57778 0.0222222	 0.0
2.6 0	 0.0
2.62222 0	 0.0
2.62222 0.0222222	 0.0
2.6 0.0222222	 0.0
2.62222 0	 0.0
2.64444 0	 0.0
2.64444 0.0222222	 0.0
2.62222 0.0222222	 0.0
2.64444 0	 0.0
2.66667 0	 0.0
2.66667 0.0222222	 0.0
2.64444 0.0222222	 0.0
2.66667 0	 0.0
2.68889 0	 0.0
2.68889 0.0222222	 0.0
2.66667 0.0222222	 0.0
2.68889 0	 0.0
2.71111 0	 0.0
2.71111 0.0222222	 0.0
2.68889 0.0222222	 0.0
2.71111 0	 0.0
2.73333 0	 0.0
2.73333 0.0222222	 0.0
2.71111 0.0222222	 0.0
2.73333 0	 0.0
2.75556 0	 0.0
2.75556 0.0222222	 0.0
2.73333 0.0222222	 0.0
2.75556 0	 0.0
2.77778 0	 0.0
2.77778 0.0222222	 0.0
2.75556 0.0222222	 0.0
2.77778 0	 0.0
2.8 0	 0.0
2.8 0.0222222	 0.0
2.77778 0.0222222	 0.0
2.8 0	 0.0
2.82222 0	 0.0
2.82222 0.0222222	 0.0
2.8 0.0222222	 0.0
2.82222 0	 0.0
2.84444 0	 0.0
2.84444 0.0222222	 0.0
2.82222 0.0222222	 0.0
2.84444 0	 0.0
2.86667 0	 0.0
2.86667 0.0222222	 0.0
2.84444 0.0222222	 0.0
2.86667 0	 0.0
2.88889 0	 0.0
2.88889 0.0222222	 0.0
2.86667 0.0222222	 0.0
2.88889 0	 0.0
2.91111 0	 0.0
2.91111 0.0222222	 0.0
2.88889 0.0222222	 0.0
2.91111 0	 0.0
[...]
POINT_DATA 23448
SCALARS levelset_first float
LOOKUP_TABLE default
-1.20277
-1.1615
-1.13533
-1.1766
-1.1615
-1.12123
-1.09506
-1.13533
-1.12123
-1.08194
-1.05577
-1.09506
-1.08194
-1.04364
-1.01747
-1.05577
-1.04364
-1.00632
-0.980151
-1.01747
-1.00632
-0.969998
-0.943825
-0.980151
-0.969998
-0.93466
-0.908487
-0.943825
-0.93466
-0.900309
-0.874136
-0.908487
-0.900309
-0.866946
-0.840773
-0.874136
-0.866946
-0.834571
-0.808398
-0.840773
-0.834571
-0.803183
-0.77701
-0.808398
-0.803183
-0.772783
-0.74661
-0.77701
-0.772783
-0.74337
-0.717197
-0.74661
-0.74337
-0.714945
-0.688773
-0.717197
-0.714945
-0.687508
-0.661336
-0.688773
-0.687508
-0.661059
-0.634886
-0.661336
-0.661059
-0.635597
-0.609424
-0.634886
-0.635597
-0.611123
-0.58495
-0.609424
-0.611123
-0.587636
-0.561463
-0.58495
-0.587636
-0.565137
-0.538965
-0.561463
-0.565137
-0.543626
-0.517453
-0.538965
-0.543626
-0.523103
-0.49693
-0.517453
-0.523103
-0.503567
-0.477394
-0.49693
-0.503567
-0.485018
-0.458846
-0.477394
-0.485018
-0.467458
-0.441285
-0.458846
-0.467458
-0.450885
-0.424712
-0.441285
-0.450885
-0.4353
-0.409127
-0.424712
-0.4353
-0.420702
-0.394529
-0.409127
-0.420702
-0.407092
-0.380919
-0.394529
-0.407092
-0.39447
-0.368297
-0.380919
-0.39447
-0.382835
-0.356662
-0.368297
-0.382835
-0.372188
-0.346015
-0.356662
-0.372188
-0.362529
-0.336356
-0.346015
-0.362529
-0.353857
-0.327684
-0.336356
-0.353857
-0.346173
-0.32
-0.327684
-0.346173
-0.339476
-0.313304
-0.32
-0.339476
-0.333768
-0.307595
-0.313304
-0.333768
-0.329047
-0.302874
-0.307595
-0.329047
-0.325313
-0.29914
-0.302874
-0.325313
-0.322567
-0.296395
-0.29914
-0.322567
-0.320809
-0.294636
-0.296395
-0.320809
-0.320039
-0.293866
-0.294636
-0.320039
-0.320256
-0.294083
-0.293866
-0.320256
-0.321461
-0.295288
-0.294083
-0.321461
-0.323653
-0.29748
-0.295288
-0.323653
-0.326833
-0.300661
-0.29748
-0.326833
-0.331001
-0.304828
-0.300661
-0.331001
-0.336157
-0.309984
-0.304828
-0.336157
-0.3423
-0.316127
-0.309984
-0.3423
-0.34943
-0.323258
-0.316127
-0.34943
-0.357549
-0.331376
-0.323258
-0.357549
-0.366655
-0.340482
-0.331376
-0.366655
-0.376749
-0.350576
-0.340482
-0.376749
-0.38783
-0.361657
-0.350576
-0.38783
-0.399899
-0.373726
-0.361657
-0.399899
-0.412956
-0.386783
-0.373726
-0.412956
-0.427
-0.400827
-0.386783
-0.427
-0.442032
-0.415859
-0.400827
-0.442032
-0.458052
-0.431879
-0.415859
-0.458052
-0.475059
-0.448886
-0.431879
-0.475059
-0.493054
-0.466881
-0.448886
-0.493054
-0.512037
-0.485864
-0.466881
-0.512037
-0.532007
-0.505834
-0.485864
-0.532007
-0.552965
-0.526792
-0.505834
-0.552965
-0.57491
-0.548737
-0.526792
-0.57491
-0.597844
-0.571671
-0.548737
-0.597844
-0.621764
-0.595592
-0.571671
-0.621764
-0.646673
-0.6205
-0.595592
-0.646673
-0.672569
-0.646396
-0.6205
-0.672569
-0.699453
-0.67328
-0.646396
-0.699453
-0.727324
-0.701152
-0.67328
-0.727324
-0.756184
-0.730011
-0.701152
-0.756184
-0.78603
-0.759858
-0.730011
-0.78603
-0.816865
-0.790692
-0.759858
-0.816865
-0.848687
-0.822514
-0.790692
-0.848687
-0.881497
-0.855324
-0.822514
-0.881497
-0.915294
-0.889121
-0.855324
-0.915294
-0.950079
-0.923906
-0.889121
-0.950079
-0.985852
-0.959679
-0.923906
-0.985852
-1.02261
-0.99644
-0.959679
-1.02261
-1.06036
-1.03419
-0.99644
-1.06036
-1.0991
-1.07292
-1.03419
-1.0991
-1.13882
-1.11265
-1.07292
-1.13882
-1.17953
-1.15336
-1.11265
-1.17953
-1.22123
-1.19506
-1.15336
-1.22123
-1.26392
-1.23774
-1.19506
-1.26392
-1.30759
-1.28142
-1.23774
-1.30759
-1.35225
-1.32608
-1.28142
-1.35225
-1.3979
-1.37173
-1.32608
-1.3979
-1.44454
-1.41836
-1.37173
-1.44454
-1.49216
-1.46599
-1.41836
-1.49216
-1.54077
-1.5146
-1.46599
-1.54077
-1.59037
-1.5642
-1.5146
-1.59037
-1.64096
-1.61479
-1.5642
-1.64096
-1.69254
-1.66636
-1.61479
-1.69254
-1.7451
-1.71893
-1.66636
-1.7451
-1.79865
-1.77248
-1.71893
-1.79865
-1.85319
-1.82702
-1.77248
-1.85319
-1.90871
-1.88254
-1.82702
-1.90871
-1.96523
-1.93905
-1.88254
-1.96523
-2.02273
-1.99656
-1.93905
-2.02273
-2.08122
-2.05504
-1.99656
-2.08122
-2.14069
-2.11452
-2.05504
-2.14069
-2.20116
-2.17499
-2.11452
-2.20116
-2.26261
-2.23644
-2.17499
-2.26261
-2.32505
-2.29888
-2.23644
-2.32505
-2.38848
-2.3623
-2.29888
-2.38848
-2.45289
-2.42672
-2.3623
-2.45289
-2.51829
-2.49212
-2.42672
-2.51829
-2.58468
-2.55851
-2.49212
-2.58468
-2.65206
-2.62589
-2.55851
-2.65206
-2.72043
-2.69425
-2.62589
-2.72043
-2.78978
-2.76361
-2.69425
-2.78978
-2.86012
-2.83395
-2.76361
-2.86012
-2.93145
-2.90528
-2.83395
-2.93145
-3.00376
-2.97759
-2.90528
-3.00376
-3.07707
-3.05089
-2.97759
-3.07707
-3.15136
-3.12519
-3.05089
-3.15136
-3.22664
-3.20046
-3.12519
-3.22664
-3.3029
-3.27673
-3.20046
-3.3029
-3.38016
-3.35399
-3.27673
-3.38016
-3.4584
-3.43223
-3.35399
-3.4584
-3.53763
-3.51146
-3.43223
-3.53763
-3.61785
-3.59167
-3.51146
-3.61785
-3.69905
-3.67288
-3.59167
-3.69905
-3.78124
-3.75507
-3.67288
-3.78124
-3.86442
-3.83825
-3.75507
-3.86442
-3.94859
-3.92242
-3.83825
-3.94859
-4.03375
-4.00757
-3.92242
-4.03375
-4.11989
-4.09372
-4.00757
-4.11989
-4.20702
-4.18085
-4.09372
-4.20702
-4.29514
-4.26897
-4.18085
-4.29514
-4.38425
-4.35807
-4.26897
-4.38425
-4.47434
-4.44817
-4.35807
-4.47434
-4.56542
-4.53925
-4.44817
-1.1766
-1.13533
-1.11015
-1.15141
-1.13533
-1.09506
-1.06987
-1.11015
-1.09506
-1.05577
-1.03058
-1.06987
-1.05577
-1.01747
-0.99228
-1.03058
-1.01747
-0.980151
-0.954966
-0.99228
-0.980151
-0.943825
-0.91864
-0.954966
-0.943825
-0.908487
-0.883302
-0.91864
-0.908487
-0.874136
-0.848951
-0.883302
-0.874136
-0.840773
-0.815588
-0.848951
-0.840773
-0.808398
-0.783213
-0.815588
-0.808398
-0.77701
-0.751825
-0.783213
-0.77701
-0.74661
-0.721425
-0.751825
-0.74661
-0.717197
-0.692012
-0.721425
-0.717197
-0.688773
-0.663587
-0.692012
-0.688773
-0.661336
-0.63615
-0.663587
-0.661336
-0.634886
-0.609701
-0.63615
-0.634886
-0.609424
-0.584239
-0.609701
-0.609424
-0.58495
-0.559765
-0.584239
-0.58495
-0.561463
-0.536278
-0.559765
-0.561463
-0.538965
-0.513779
-0.536278
-0.538965
-0.517453
-0.492268
-0.513779
-0.517453
-0.49693
-0.471745
-0.492268
-0.49693
-0.477394
-0.452209
-0.471745
-0.477394
-0.458846
-0.43366
-0.452209
-0.458846
-0.441285
-0.4161
-0.43366
-0.441285
-0.424712
-0.399527
-0.4161
-0.424712
-0.409127
-0.383942
-0.399527
-0.409127
-0.394529
-0.369344
-0.383942
-0.394529
-0.380919
-0.355734
-0.369344
-0.380919
-0.368297
-0.343112
-0.355734
-0.368297
-0.356662
-0.331477
-0.343112
-0.356662
-0.346015
-0.32083
-0.331477
-0.346015
-0.336356
-0.311171
-0.32083
-0.336356
-0.327684
-0.302499
-0.311171
-0.327684
-0.32
-0.294815
-0.302499
-0.32
-0.313304
-0.288118
-0.294815
-0.313304
-0.307595
-0.28241
-0.288118
-0.307595
-0.302874
-0.277689
-0.28241
-0.302874
-0.29914
-0.273955
-0.277689
-0.29914
-0.296395
-0.271209
-0.273955
-0.296395
-0.294636
-0.269451
-0.271209
-0.294636
-0.293866
-0.268681
-0.269451
-0.293866
-0.294083
-0.268898
-0.268681
-0.294083
-0.295288
-0.270103
-0.268898
-0.295288
-0.29748
-0.272295
-0.270103
-0.29748
-0.300661
-0.275475
-0.272295
-0.300661
-0.304828
-0.279643
-0.275475
-0.304828
-0.309984
-0.284799
-0.279643
-0.309984
-0.316127
-0.290942
-0.284799
-0.316127
-0.323258
-0.298072
-0.290942
-0.323258
-0.331376
-0.306191
-0.298072
-0.331376
-0.340482
-0.315297
-0.306191
-0.340482
-0.350576
-0.325391
-0.315297
-0.350576
-0.361657
-0.336472
-0.325391
-0.361657
-0.373726
-0.348541
-0.336472
-0.373726
-0.386783
-0.361598
-0.348541
-0.386783
-0.400827
-0.375642
-0.361598
-0.400827
-0.415859
-0.390674
-0.375642
-0.415859
-0.431879
-0.406694
-0.390674
-0.431879
-0.448886
-0.423701
-0.406694
-0.448886
-0.466881
-0.441696
-0.423701
-0.466881
-0.485864
-0.460679
-0.441696
-0.485864
-0.505834
-0.480649
-0.460679
-0.505834
-0.526792
-0.501607
-0.480649
-0.526792
-0.548737
-0.523552
-0.501607
-0.548737
-0.571671
-0.546486
-0.523552
-0.571671
-0.595592
-0.570406
-0.546486
-0.595592
-0.6205
-0.595315
-0.570406
-0.6205
-0.646396
-0.621211
-0.595315
-0.646396
-0.67328
-0.648095
-0.621211
-0.67328
-0.701152
-0.675966
-0.648095
-0.701152
-0.730011
-0.704826
-0.675966
-0.730011
-0.759858
-0.734672
-0.704826
-0.759858
-0.790692
-0.765507
-0.734672
-0.790692
-0.822514
-0.797329
-0.765507
-0.822514
-0.855324
-0.830139
-0.797329
-0.855324
-0.889121
-0.863936
-0.830139
-0.889121
-0.923906
-0.898721
-0.863936
-0.923906
-0.959679
-0.934494
-0.898721
-0.959679
-0.99644
-0.971254
-0.934494
-0.99644
-1.03419
-1.009
-0.971254
-1.03419
-1.07292
-1.04774
-1.009
-1.07292
-1.11265
-1.08746
-1.04774
-1.11265
-1.15336
-1.12817
-1.08746
-1.15336
-1.19506
-1.16987
-1.12817
-1.19506
-1.23774
-1.21256
-1.16987
-1.23774
-1.28142
-1.25623
-1.21256
-1.28142
-1.32608
-1.30089
-1.25623
-1.32608
-1.37173
-1.34654
-1.30089
-1.37173
-1.41836
-1.39318
-1.34654
-1.41836
-1.46599
-1.4408
-1.39318
-1.46599
-1.5146
-1.48942
-1.4408
-1.5146
-1.5642
-1.53902
-1.48942
-1.5642
-1.61479
-1.5896
-1.53902
-1.61479
-1.66636
-1.64118
-1.5896
-1.66636
-1.71893
-1.69374
-1.64118
-1.71893
-1.77248
-1.74729
-1.69374
-1.77248
-1.82702
-1.80183
-1.74729
-1.82702
-1.88254
-1.85736
-1.80183
-1.88254
-1.93905
-1.91387
-1.85736
-1.93905
-1.99656
-1.97137
-1.91387
-1.99656
-2.05504
-2.02986
-1.97137
-2.05504
-2.11452
-2.08934
-2.02986
-2.11452
-2.17499
-2.1498
-2.08934
-2.17499
-2.23644
-2.21125
-2.1498
-2.23644
-2.29888
-2.27369
-2.21125
-2.29888
-2.3623
-2.33712
-2.27369
-2.3623
-2.42672
-2.40153
-2.33712
-2.42672
-2.49212
-2.46694
-2.40153
-2.49212
-2.55851
-2.53333
-2.46694
-2.55851
-2.62589
-2.6007
-2.53333
-2.62589
-2.69425
-2.66907
-2.6007
-2.69425
-2.76361
-2.73842
-2.66907
-2.76361
-2.83395
-2.80876
-2.73842
-2.83395
-2.90528
-2.88009
-2.80876
-2.90528
-2.97759
-2.95241
-2.88009
-2.97759
-3.05089
-3.02571
-2.95241
-3.05089
-3.12519
-3.1
-3.02571
-3.12519
-3.20046
-3.17528
-3.1
-3.20046
-3.27673
-3.25155
-3.17528
-3.27673
-3.35399
-3.3288
-3.25155
-3.35399
-3.43223
-3.40704
-3.3288
-3.43223
-3.51146
-3.48627
-3.40704
-3.51146
-3.59167
-3.56649
-3.48627
-3.59167
-3.67288
-3.64769
-3.56649
-3.67288
-3.75507
-3.72989
-3.64769
-3.75507
-3.83825
-3.81307
-3.72989
-3.83825
-3.92242
-3.89723
-3.81307
-3.92242
-4.00757
-3.98239
-3.89723
-4.00757
-4.09372
-4.06853
-3.98239
-4.09372
-4.18085
-4.15566
-4.06853
-4.18085
-4.26897
-4.24378
-4.15566
-4.26897
-4.35807
-4.33289
-4.24378
-4.35807
-4.44817
-4.42298
-4.33289
-4.44817
-4.53925
-4.51406
-4.42298
-1.15141
-1.11015
-1.08595
-1.12721
-1.11015
-1.06987
-1.04567
-1.08595
-1.06987
-1.03058
-1.00638
-1.04567
-1.03058
-0.99228
-0.968082
-1.00638
-0.99228
-0.954966
-0.930769
-0.968082
-0.954966
-0.91864
-0.894443
-0.930769
-0.91864
-0.883302
-0.859104
-0.894443
-0.883302
-0.848951
-0.824754
-0.859104
-0.848951
-0.815588
-0.79139
-0.824754
-0.815588
-0.783213
-0.759015
-0.79139
-0.783213
-0.751825
-0.727627
-0.759015
-0.751825
-0.721425
-0.697227
-0.727627
-0.721425
-0.692012
-0.667815
-0.697227
-0.692012
-0.663587
-0.63939
-0.667815
-0.663587
-0.63615
-0.611953
-0.63939
-0.63615
-0.609701
-0.585503
-0.611953
-0.609701
-0.584239
-0.560041
-0.585503
-0.584239
-0.559765
-0.535567
-0.560041
-0.559765
-0.536278
-0.512081
-0.535567
-0.536278
-0.513779
-0.489582
-0.512081
-0.513779
-0.492268
-0.468071
-0.489582
-0.492268
-0.471745
-0.447547
-0.468071
-0.471745
-0.452209
-0.428011
-0.447547
-0.452209
-0.43366
-0.409463
-0.428011
-0.43366
-0.4161
-0.391902
-0.409463
-0.4161
-0.399527
-0.375329
-0.391902
-0.399527
-0.383942
-0.359744
-0.375329
-0.383942
-0.369344
-0.345146
-0.359744
-0.369344
-0.355734
-0.331536
-0.345146
-0.355734
-0.343112
-0.318914
-0.331536
-0.343112
-0.331477
-0.307279
-0.318914
-0.331477
-0.32083
-0.296632
-0.307279
-0.32083
-0.311171
-0.286973
-0.296632
-0.311171
-0.302499
-0.278301
-0.286973
-0.302499
-0.294815
-0.270617
-0.278301
-0.294815
-0.288118
-0.263921
-0.270617
-0.288118
-0.28241
-0.258212
-0.263921
-0.28241
-0.277689
-0.253491
-0.258212
-0.277689
-0.273955
-0.249758
-0.253491
-0.273955
-0.271209
-0.247012
-0.249758
-0.271209
-0.269451
-0.245254
-0.247012
-0.269451
-0.268681
-0.244483
-0.245254
-0.268681
-0.268898
-0.2447
-0.244483
-0.268898
-0.270103
-0.245905
-0.2447
-0.270103
-0.272295
-0.248098
-0.245905
-0.272295
-0.275475
-0.251278
-0.248098
-0.275475
-0.279643
-0.255446
-0.251278
-0.279643
-0.284799
-0.260601
-0.255446
-0.284799
-0.290942
-0.266744
-0.260601
-0.290942
-0.298072
-0.273875
-0.266744
-0.298072
-0.306191
-0.281993
-0.273875
-0.306191
-0.315297
-0.291099
-0.281993
-0.315297
-0.325391
-0.301193
-0.291099
-0.325391
-0.336472
-0.312274
-0.301193
-0.336472
-0.348541
-0.324344
-0.312274
-0.348541
-0.361598
-0.3374
-0.324344
-0.361598
-0.375642
-0.351445
-0.3374
-0.375642
-0.390674
-0.366477
-0.351445
-0.390674
-0.406694
-0.382496
-0.366477
-0.406694
-0.423701
-0.399503
-0.382496
-0.423701
-0.441696
-0.417498
-0.399503
-0.441696
-0.460679
-0.436481
-0.417498
-0.460679
-0.480649
-0.456451
-0.436481
-0.480649
-0.501607
-0.477409
-0.456451
-0.501607
-0.523552
-0.499355
-0.477409
-0.523552
-0.546486
-0.522288
-0.499355
-0.546486
-0.570406
-0.546209
-0.522288
-0.570406
-0.595315
-0.571117
-0.546209
-0.595315
-0.621211
-0.597014
-0.571117
-0.621211
-0.648095
-0.623897
-0.597014
-0.648095
-0.675966
-0.651769
-0.623897
-0.675966
-0.704826
-0.680628
-0.651769
-0.704826
-0.734672
-0.710475
-0.680628
-0.734672
-0.765507
-0.741309
-0.710475
-0.765507
-0.797329
-0.773131
-0.741309
-0.797329
-0.830139
-0.805941
-0.773131
-0.830139
-0.863936
-0.839739
-0.805941
-0.863936
-0.898721
-0.874524
-0.839739
-0.898721
-0.934494
-0.910296
-0.874524
-0.934494
-0.971254
-0.947057
-0.910296
-0.971254
-1.009
-0.984805
-0.947057
-1.009
-1.04774
-1.02354
-0.984805
-1.04774
-1.08746
-1.06326
-1.02354
-1.08746
-1.12817
-1.10397
-1.06326
-1.12817
-1.16987
-1.14567
-1.10397
-1.16987
-1.21256
-1.18836
-1.14567
-1.21256
-1.25623
-1.23203
-1.18836
-1.25623
-1.30089
-1.2767
-1.23203
-1.30089
-1.34654
-1.32234
-1.2767
-1.34654
-1.39318
-1.36898
-1.32234
-1.39318
-1.4408
-1.41661
-1.36898
-1.4408
-1.48942
-1.46522
-1.41661
-1.48942
-1.53902
-1.51482
-1.46522
-1.53902
-1.5896
-1.56541
-1.51482
-1.5896
-1.64118
-1.61698
-1.56541
-1.64118
-1.69374
-1.66954
-1.61698
-1.69374
-1.74729
-1.72309
-1.66954
-1.74729
-1.80183
-1.77763
-1.72309
-1.80183
-1.85736
-1.83316
-1.77763
-1.85736
-1.91387
-1.88967
-1.83316
-1.91387
-1.97137
-1.94717
-1.88967
-1.97137
-2.02986
-2.00566
-1.94717
-2.02986
-2.08934
-2.06514
-2.00566
-2.08934
-2.1498
-2.1256
-2.06514
-2.1498
-2.21125
-2.18705
-2.1256
-2.21125
-2.27369
-2.24949
-2.18705
-2.27369
-2.33712
-2.31292
-2.24949
-2.33712
-2.40153
-2.37734
-2.31292
-2.40153
-2.46694
-2.44274
-2.37734
-2.46694
-2.53333
-2.50913
-2.44274
-2.53333
-2.6007
-2.57651
-2.50913
-2.6007
-2.66907
-2.64487
-2.57651
-2.66907
-2.73842
-2.71422
-2.64487
-2.73842
-2.80876
-2.78456
-2.71422
-2.80876
-2.88009
-2.85589
-2.78456
-2.88009
-2.95241
-2.92821
-2.85589
-2.95241
-3.02571
-3.00151
-2.92821
-3.02571
-3.1
-3.0758
-3.00151
-3.1
-3.17528
-3.15108
-3.0758
-3.17528
-3.25155
-3.22735
-3.15108
-3.25155
-3.3288
-3.3046
-3.22735
-3.3288
-3.40704
-3.38284
-3.3046
-3.40704
-3.48627
-3.46207
-3.38284
-3.48627
-3.56649
-3.54229
-3.46207
-3.56649
-3.64769
-3.6235
-3.54229
-3.64769
-3.72989
-3.70569
-3.6235
-3.72989
-3.81307
-3.78887
-3.70569
-3.81307
-3.89723
-3.87304
-3.78887
-3.89723
-3.98239
-3.95819
-3.87304
-3.98239
-4.06853
-4.04434
-3.95819
-4.06853
-4.15566
-4.13147
-4.04434
-4.15566
-4.24378
-4.21958
-4.13147
-4.24378
-4.33289
-4.30869
-4.21958
-4.33289
-4.42298
-4.39878
-4.30869
-4.42298
-4.51406
-4.48987
-4.39878
-1.12721
-1.08595
-1.06274
-1.104
-1.08595
-1.04567
-1.02246
-1.06274
-1.04567
-1.00638
-0.983174
-1.02246
-1.00638
-0.968082
-0.944873
-0.983174
-0.968082
-0.930769
-0.907559
-0.944873
-0.930769
-0.894443
-0.871233
-0.907559
-0.894443
-0.859104
-0.835894
-0.871233
-0.859104
-0.824754
-0.801544
-0.835894
-0.824754
-0.79139
-0.768181
-0.801544
-0.79139
-0.759015
-0.735805
-0.768181
-0.759015
-0.727627
-0.704417
-0.735805
-0.727627
-0.697227
-0.674017
-0.704417
-0.697227
-0.667815
-0.644605
-0.674017
-0.667815
-0.63939
-0.61618
-0.644605
-0.63939
-0.611953
-0.588743
-0.61618
-0.611953
-0.585503
-0.562293
-0.588743
-0.585503
-0.560041
-0.536832
-0.562293
-0.560041
-0.535567
-0.512357
-0.536832
-0.535567
-0.512081
-0.488871
-0.512357
-0.512081
-0.489582
-0.466372
-0.488871
-0.489582
-0.468071
-0.444861
-0.466372
-0.468071
-0.447547
-0.424337
-0.444861
-0.447547
-0.428011
-0.404801
-0.424337
-0.428011
-0.409463
-0.386253
-0.404801
-0.409463
-0.391902
-0.368692
-0.386253
-0.391902
-0.375329
-0.352119
-0.368692
-0.375329
-0.359744
-0.336534
-0.352119
-0.359744
-0.345146
-0.321937
-0.336534
-0.345146
-0.331536
-0.308327
-0.321937
-0.331536
-0.318914
-0.295704
-0.308327
-0.318914
-0.307279
-0.28407
-0.295704
-0.307279
-0.296632
-0.273423
-0.28407
-0.296632
-0.286973
-0.263763
-0.273423
-0.286973
-0.278301
-0.255091
-0.263763
-0.278301
-0.270617
-0.247407
-0.255091
-0.270617
-0.263921
-0.240711
-0.247407
-0.263921
-0.258212
-0.235002
-0.240711
-0.258212
-0.253491
-0.230281
-0.235002
-0.253491
-0.249758
-0.226548
-0.230281
-0.249758
-0.247012
-0.223802
-0.226548
-0.247012
-0.245254
-0.222044
-0.223802
-0.245254
-0.244483
-0.221273
-0.222044
-0.244483
-0.2447
-0.22149
-0.221273
-0.2447
-0.245905
-0.222695
-0.22149
-0.245905
-0.248098
-0.224888
-0.222695
-0.248098
-0.251278
-0.228068
-0.224888
-0.251278
-0.255446
-0.232236
-0.228068
-0.255446
-0.260601
-0.237391
-0.232236
-0.260601
-0.266744
-0.243534
-0.237391
-0.266744
-0.273875
-0.250665
-0.243534
-0.273875
-0.281993
-0.258783
-0.250665
-0.281993
-0.291099
-0.26789
-0.258783
-0.291099
-0.301193
-0.277983
-0.26789
-0.301193
-0.312274
-0.289065
-0.277983
-0.312274
-0.324344
-0.301134
-0.289065
-0.324344
-0.3374
-0.31419
-0.301134
-0.3374
-0.351445
-0.328235
-0.31419
-0.351445
-0.366477
-0.343267
-0.328235
-0.366477
-0.382496
-0.359286
-0.343267
-0.382496
-0.399503
-0.376294
-0.359286
-0.399503
-0.417498
-0.394289
-0.376294
-0.417498
-0.436481
-0.413271
-0.394289
-0.436481
-0.456451
-0.433241
-0.413271
-0.456451
-0.477409
-0.454199
-0.433241
-0.477409
-0.499355
-0.476145
-0.454199
-0.499355
-0.522288
-0.499078
-0.476145
-0.522288
-0.546209
-0.522999
-0.499078
-0.546209
-0.571117
-0.547908
-0.522999
-0.571117
-0.597014
-0.573804
-0.547908
-0.597014
-0.623897
-0.600688
-0.573804
-0.623897
-0.651769
-0.628559
-0.600688
-0.651769
-0.680628
-0.657418
-0.628559
-0.680628
-0.710475
-0.687265
-0.657418
-0.710475
-0.741309
-0.718099
-0.687265
-0.741309
-0.773131
-0.749922
-0.718099
-0.773131
-0.805941
-0.782731
-0.749922
-0.805941
-0.839739
-0.816529
-0.782731
-0.839739
-0.874524
-0.851314
-0.816529
-0.874524
-0.910296
-0.887087
-0.851314
-0.910296
-0.947057
-0.923847
-0.887087
-0.947057
-0.984805
-0.961595
-0.923847
-0.984805
-1.02354
-1.00033
-0.961595
-1.02354
-1.06326
-1.04005
-1.00033
-1.06326
-1.10397
-1.08077
-1.04005
-1.10397
-1.14567
-1.12246
-1.08077
-1.14567
-1.18836
-1.16515
-1.12246
-1.18836
-1.23203
-1.20882
-1.16515
-1.23203
-1.2767
-1.25349
-1.20882
-1.2767
-1.32234
-1.29913
-1.25349
-1.32234
-1.36898
-1.34577
-1.29913
-1.36898
-1.41661
-1.3934
-1.34577
-1.41661
-1.46522
-1.44201
-1.3934
-1.46522
-1.51482
-1.49161
-1.44201
-1.51482
-1.56541
-1.5422
-1.49161
-1.56541
-1.61698
-1.59377
-1.5422
-1.61698
-1.66954
-1.64633
-1.59377
-1.66954
-1.72309
-1.69988
-1.64633
-1.72309
-1.77763
-1.75442
-1.69988
-1.77763
-1.83316
-1.80995
-1.75442
-1.83316
-1.88967
-1.86646
-1.80995
-1.88967
-1.94717
-1.92396
-1.86646
-1.94717
-2.00566
-1.98245
-1.92396
-2.00566
-2.06514
-2.04193
-1.98245
-2.06514
-2.1256
-2.10239
-2.04193
-2.1256
-2.18705
-2.16384
-2.10239
-2.18705
-2.24949
-2.22628
-2.16384
-2.24949
-2.31292
-2.28971
-2.22628
-2.31292
-2.37734
-2.35413
-2.28971
-2.37734
-2.44274
-2.41953
-2.35413
-2.44274
-2.50913
-2.48592
-2.41953
-2.50913
-2.57651
-2.5533
-2.48592
-2.57651
-2.64487
-2.62166
-2.5533
-2.64487
-2.71422
-2.69101
-2.62166
-2.71422
-2.78456
-2.76135
-2.69101
-2.78456
-2.85589
-2.83268
-2.76135
-2.85589
-2.92821
-2.905
-2.83268
-2.92821
-3.00151
-2.9783
-2.905
-3.00151
-3.0758
-3.05259
-2.9783
-3.0758
-3.15108
-3.12787
-3.05259
-3.15108
-3.22735
-3.20414
-3.12787
-3.22735
-3.3046
-3.28139
-3.20414
-3.3046
-3.38284