# vtk DataFile Version 1.0
unstructured Grid
ASCII
DATASET UNSTRUCTURED_GRID
POINTS 23424 float 
0 0	 0.0
0.0222222 0	 0.0
0.0222222 0.0222222	 0.0
0 0.0222222	 0.0
0.0222222 0	 0.0
0.0444444 0	 0.0
0.0444444 0.0222222	 0.0
0.0222222 0.0222222	 0.0
0.0444444 0	 0.0
0.0666667 0	 0.0
0.0666667 0.0222222	 0.0
0.0444444 0.0222222	 0.0
0.0666667 0	 0.0
0.0888889 0	 0.0
0.0888889 0.0222222	 0.0
0.0666667 0.0222222	 0.0
0.0888889 0	 0.0
0.111111 0	 0.0
0.111111 0.0222222	 0.0
0.0888889 0.0222222	 0.0
0.111111 0	 0.0
0.133333 0	 0.0
0.133333 0.0222222	 0.0
0.111111 0.0222222	 0.0
0.133333 0	 0.0
0.155556 0	 0.0
0.155556 0.0222222	 0.0
0.133333 0.0222222	 0.0
0.155556 0	 0.0
0.177778 0	 0.0
0.177778 0.0222222	 0.0
0.155556 0.0222222	 0.0
0.177778 0	 0.0
0.2 0	 0.0
0.2 0.0222222	 0.0
0.177778 0.0222222	 0.0
0.2 0	 0.0
0.222222 0	 0.0
0.222222 0.0222222	 0.0
0.2 0.0222222	 0.0
0.222222 0	 0.0
0.244444 0	 0.0
0.244444 0.0222222	 0.0
0.222222 0.0222222	 0.0
0.244444 0	 0.0
0.266667 0	 0.0
0.266667 0.0222222	 0.0
0.244444 0.0222222	 0.0
0.266667 0	 0.0
0.288889 0	 0.0
0.288889 0.0222222	 0.0
0.266667 0.0222222	 0.0
0.288889 0	 0.0
0.311111 0	 0.0
0.311111 0.0222222	 0.0
0.288889 0.0222222	 0.0
0.311111 0	 0.0
0.333333 0	 0.0
0.333333 0.0222222	 0.0
0.311111 0.0222222	 0.0
0.333333 0	 0.0
0.355556 0	 0.0
0.355556 0.0222222	 0.0
0.333333 0.0222222	 0.0
0.355556 0	 0.0
0.377778 0	 0.0
0.377778 0.0222222	 0.0
0.355556 0.0222222	 0.0
0.377778 0	 0.0
0.4 0	 0.0
0.4 0.0222222	 0.0
0.377778 0.0222222	 0.0
0.4 0	 0.0
0.422222 0	 0.0
0.422222 0.0222222	 0.0
0.4 0.0222222	 0.0
0.422222 0	 0.0
0.444444 0	 0.0
0.444444 0.0222222	 0.0
0.422222 0.0222222	 0.0
0.444444 0	 0.0
0.466667 0	 0.0
0.466667 0.0222222	 0.0
0.444444 0.0222222	 0.0
0.466667 0	 0.0
0.488889 0	 0.0
0.488889 0.0222222	 0.0
0.466667 0.0222222	 0.0
0.488889 0	 0.0
0.511111 0	 0.0
0.511111 0.0222222	 0.0
0.488889 0.0222222	 0.0
0.511111 0	 0.0
0.533333 0	 0.0
0.533333 0.0222222	 0.0
0.511111 0.0222222	 0.0
0.533333 0	 0.0
0.555556 0	 0.0
0.555556 0.0222222	 0.0
0.533333 0.0222222	 0.0
0.555556 0	 0.0
0.577778 0	 0.0
0.577778 0.0222222	 0.0
0.555556 0.0222222	 0.0
0.577778 0	 0.0
0.6 0	 0.0
0.6 0.0222222	 0.0
0.577778 0.0222222	 0.0
0.6 0	 0.0
0.622222 0	 0.0
0.622222 0.0222222	 0.0
0.6 0.0222222	 0.0
0.622222 0	 0.0
0.644444 0	 0.0
0.644444 0.0222222	 0.0
0.622222 0.0222222	 0.0
0.644444 0	 0.0
0.666667 0	 0.0
0.666667 0.0222222	 0.0
0.644444 0.0222222	 0.0
0.666667 0	 0.0
0.688889 0	 0.0
0.688889 0.0222222	 0.0
0.666667 0.0222222	 0.0
0.688889 0	 0.0
0.711111 0	 0.0
0.711111 0.0222222	 0.0
0.688889 0.0222222	 0.0
0.711111 0	 0.0
0.733333 0	 0.0
0.733333 0.0222222	 0.0
0.711111 0.0222222	 0.0
0.733333 0	 0.0
0.755556 0	 0.0
0.755556 0.0222222	 0.0
0.733333 0.0222222	 0.0
0.755556 0	 0.0
0.777778 0	 0.0
0.777778 0.0222222	 0.0
0.755556 0.0222222	 0.0
0.777778 0	 0.0
0.8 0	 0.0
0.8 0.0222222	 0.0
0.777778 0.0222222	 0.0
0.8 0	 0.0
0.822222 0	 0.0
0.822222 0.0222222	 0.0
0.8 0.0222222	 0.0
0.822222 0	 0.0
0.844444 0	 0.0
0.844444 0.0222222	 0.0
0.822222 0.0222222	 0.0
0.844444 0	 0.0
0.866667 0	 0.0
0.866667 0.0222222	 0.0
0.844444 0.0222222	 0.0
0.866667 0	 0.0
0.888889 0	 0.0
0.888889 0.0222222	 0.0
0.866667 0.0222222	 0.0
0.888889 0	 0.0
0.911111 0	 0.0
0.911111 0.0222222	 0.0
0.888889 0.0222222	 0.0
0.911111 0	 0.0
0.933333 0	 0.0
0.933333 0.0222222	 0.0
0.911111 0.0222222	 0.0
0.933333 0	 0.0
0.955556 0	 0.0
0.955556 0.0222222	 0.0
0.933333 0.0222222	 0.0
0.955556 0	 0.0
0.977778 0	 0.0
0.977778 0.0222222	 0.0
0.955556 0.0222222	 0.0
0.977778 0	 0.0
1 0	 0.0
1 0.0222222	 0.0
0.977778 0.0222222	 0.0
1 0	 0.0
1.02222 0	 0.0
1.02222 0.0222222	 0.0
1 0.0222222	 0.0
1.02222 0	 0.0
1.04444 0	 0.0
1.04444 0.0222222	 0.0
1.02222 0.0222222	 0.0
1.04444 0	 0.0
1.06667 0	 0.0
1.06667 0.0222222	 0.0
1.04444 0.0222222	 0.0
1.06667 0	 0.0
1.08889 0	 0.0
1.08889 0.0222222	 0.0
1.06667 0.0222222	 0.0
1.08889 0	 0.0
1.11111 0	 0.0
1.11111 0.0222222	 0.0
1.08889 0.0222222	 0.0
1.11111 0	 0.0
1.13333 0	 0.0
1.13333 0.0222222	 0.0
1.11111 0.0222222	 0.0
1.13333 0	 0.0
1.15556 0	 0.0
1.15556 0.0222222	 0.0
1.13333 0.0222222	 0.0
1.15556 0	 0.0
1.17778 0	 0.0
1.17778 0.0222222	 0.0
1.15556 0.0222222	 0.0
1.17778 0	 0.0
1.2 0	 0.0
1.2 0.0222222	 0.0
1.17778 0.0222222	 0.0
1.2 0	 0.0
1.22222 0	 0.0
1.22222 0.0222222	 0.0
1.2 0.0222222	 0.0
1.22222 0	 0.0
1.24444 0	 0.0
1.24444 0.0222222	 0.0
1.22222 0.0222222	 0.0
1.24444 0	 0.0
1.26667 0	 0.0
1.26667 0.0222222	 0.0
1.24444 0.0222222	 0.0
1.26667 0	 0.0
1.28889 0	 0.0
1.28889 0.0222222	 0.0
1.26667 0.0222222	 0.0
1.28889 0	 0.0
1.31111 0	 0.0
1.31111 0.0222222	 0.0
1.28889 0.0222222	 0.0
1.31111 0	 0.0
1.33333 0	 0.0
1.33333 0.0222222	 0.0
1.31111 0.0222222	 0.0
1.33333 0	 0.0
1.35556 0	 0.0
1.35556 0.0222222	 0.0
1.33333 0.0222222	 0.0
1.35556 0	 0.0
1.37778 0	 0.0
1.37778 0.0222222	 0.0
1.35556 0.0222222	 0.0
1.37778 0	 0.0
1.4 0	 0.0
1.4 0.0222222	 0.0
1.37778 0.0222222	 0.0
1.4 0	 0.0
1.42222 0	 0.0
1.42222 0.0222222	 0.0
1.4 0.0222222	 0.0
1.42222 0	 0.0
1.44444 0	 0.0
1.44444 0.0222222	 0.0
1.42222 0.0222222	 0.0
1.44444 0	 0.0
1.46667 0	 0.0
1.46667 0.0222222	 0.0
1.44444 0.0222222	 0.0
1.46667 0	 0.0
1.48889 0	 0.0
1.48889 0.0222222	 0.0
1.46667 0.0222222	 0.0
1.48889 0	 0.0
1.51111 0	 0.0
1.51111 0.0222222	 0.0
1.48889 0.0222222	 0.0
1.51111 0	 0.0
1.53333 0	 0.0
1.53333 0.0222222	 0.0
1.51111 0.0222222	 0.0
1.53333 0	 0.0
1.55556 0	 0.0
1.55556 0.0222222	 0.0
1.53333 0.0222222	 0.0
1.55556 0	 0.0
1.57778 0	 0.0
1.57778 0.0222222	 0.0
1.55556 0.0222222	 0.0
1.57778 0	 0.0
1.6 0	 0.0
1.6 0.0222222	 0.0
1.57778 0.0222222	 0.0
1.6 0	 0.0
1.62222 0	 0.0
1.62222 0.0222222	 0.0
1.6 0.0222222	 0.0
1.62222 0	 0.0
1.64444 0	 0.0
1.64444 0.0222222	 0.0
1.62222 0.0222222	 0.0
1.64444 0	 0.0
1.66667 0	 0.0
1.66667 0.0222222	 0.0
1.64444 0.0222222	 0.0
1.66667 0	 0.0
1.68889 0	 0.0
1.68889 0.0222222	 0.0
1.66667 0.0222222	 0.0
1.68889 0	 0.0
1.71111 0	 0.0
1.71111 0.0222222	 0.0
1.68889 0.0222222	 0.0
1.71111 0	 0.0
1.73333 0	 0.0
1.73333 0.0222222	 0.0
1.71111 0.0222222	 0.0
1.73333 0	 0.0
1.75556 0	 0.0
1.75556 0.0222222	 0.0
1.73333 0.0222222	 0.0
1.75556 0	 0.0
1.77778 0	 0.0
1.77778 0.0222222	 0.0
1.75556 0.0222222	 0.0
1.77778 0	 0.0
1.8 0	 0.0
1.8 0.0222222	 0.0
1.77778 0.0222222	 0.0
1.8 0	 0.0
1.82222 0	 0.0
1.82222 0.0222222	 0.0
1.8 0.0222222	 0.0
1.82222 0	 0.0
1.84444 0	 0.0
1.84444 0.0222222	 0.0
1.82222 0.0222222	 0.0
1.84444 0	 0.0
1.86667 0	 0.0
1.86667 0.0222222	 0.0
1.84444 0.0222222	 0.0
1.86667 0	 0.0
1.88889 0	 0.0
1.88889 0.0222222	 0.0
1.86667 0.0222222	 0.0
1.88889 0	 0.0
1.91111 0	 0.0
1.91111 0.0222222	 0.0
1.88889 0.0222222	 0.0
1.91111 0	 0.0
1.93333 0	 0.0
1.93333 0.0222222	 0.0
1.91111 0.0222222	 0.0
1.93333 0	 0.0
1.95556 0	 0.0
1.95556 0.0222222	 0.0
1.93333 0.0222222	 0.0
1.95556 0	 0.0
1.97778 0	 0.0
1.97778 0.0222222	 0.0
1.95556 0.0222222	 0.0
1.97778 0	 0.0
2 0	 0.0
2 0.0222222	 0.0
1.97778 0.0222222	 0.0
2 0	 0.0
2.02222 0	 0.0
2.02222 0.0222222	 0.0
2 0.0222222	 0.0
2.02222 0	 0.0
2.04444 0	 0.0
2.04444 0.0222222	 0.0
2.02222 0.0222222	 0.0
2.04444 0	 0.0
2.06667 0	 0.0
2.06667 0.0222222	 0.0
2.04444 0.0222222	 0.0
2.06667 0	 0.0
2.08889 0	 0.0
2.08889 0.0222222	 0.0
2.06667 0.0222222	 0.0
2.08889 0	 0.0
2.11111 0	 0.0
2.11111 0.0222222	 0.0
2.08889 0.0222222	 0.0
2.11111 0	 0.0
2.13333 0	 0.0
2.13333 0.0222222	 0.0
2.11111 0.0222222	 0.0
2.13333 0	 0.0
2.15556 0	 0.0
2.15556 0.0222222	 0.0
2.13333 0.0222222	 0.0
2.15556 0	 0.0
2.17778 0	 0.0
2.17778 0.0222222	 0.0
2.15556 0.0222222	 0.0
2.17778 0	 0.0
2.2 0	 0.0
2.2 0.0222222	 0.0
2.17778 0.0222222	 0.0
2.2 0	 0.0
2.22222 0	 0.0
2.22222 0.0222222	 0.0
2.2 0.0222222	 0.0
2.22222 0	 0.0
2.24444 0	 0.0
2.24444 0.0222222	 0.0
2.22222 0.0222222	 0.0
2.24444 0	 0.0
2.26667 0	 0.0
2.26667 0.0222222	 0.0
2.24444 0.0222222	 0.0
2.26667 0	 0.0
2.28889 0	 0.0
2.28889 0.0222222	 0.0
2.26667 0.0222222	 0.0
2.28889 0	 0.0
2.31111 0	 0.0
2.31111 0.0222222	 0.0
2.28889 0.0222222	 0.0
2.31111 0	 0.0
2.33333 0	 0.0
2.33333 0.0222222	 0.0
2.31111 0.0222222	 0.0
2.33333 0	 0.0
2.35556 0	 0.0
2.35556 0.0222222	 0.0
2.33333 0.0222222	 0.0
2.35556 0	 0.0
2.37778 0	 0.0
2.37778 0.0222222	 0.0
2.35556 0.0222222	 0.0
2.37778 0	 0.0
2.4 0	 0.0
2.4 0.0222222	 0.0
2.37778 0.0222222	 0.0
2.4 0	 0.0
2.42222 0	 0.0
2.42222 0.0222222	 0.0
2.4 0.0222222	 0.0
2.42222 0	 0.0
2.44444 0	 0.0
2.44444 0.0222222	 0.0
2.42222 0.0222222	 0.0
2.44444 0	 0.0
2.46667 0	 0.0
2.46667 0.0222222	 0.0
2.44444 0.0222222	 0.0
2.46667 0	 0.0
2.48889 0	 0.0
2.48889 0.0222222	 0.0
2.46667 0.0222222	 0.0
2.48889 0	 0.0
2.51111 0	 0.0
2.51111 0.0222222	 0.0
2.48889 0.0222222	 0.0
2.51111 0	 0.0
2.53333 0	 0.0
2.53333 0.0222222	 0.0
2.51111 0.0222222	 0.0
2.53333 0	 0.0
2.55556 0	 0.0
2.55556 0.0222222	 0.0
2.53333 0.0222222	 0.0
2.55556 0	 0.0
2.57778 0	 0.0
2.57778 0.0222222	 0.0
2.55556 0.0222222	 0.0
2.57778 0	 0.0
2.6 0	 0.0
2.6 0.0222222	 0.0
2.57778 0.0222222	 0.0
2.6 0	 0.0
2.62222 0	 0.0
2.62222 0.0222222	 0.0
2.6 0.0222222	 0.0
2.62222 0	 0.0
2.64444 0	 0.0
2.64444 0.0222222	 0.0
2.62222 0.0222222	 0.0
2.64444 0	 0.0
2.66667 0	 0.0
2.66667 0.0222222	 0.0
2.64444 0.0222222	 0.0
2.66667 0	 0.0
2.68889 0	 0.0
2.68889 0.0222222	 0.0
2.66667 0.0222222	 0.0
2.68889 0	 0.0
2.71111 0	 0.0
2.71111 0.0222222	 0.0
2.68889 0.0222222	 0.0
2.71111 0	 0.0
2.73333 0	 0.0
2.73333 0.0222222	 0.0
2.71111 0.0222222	 0.0
2.73333 0	 0.0
2.75556 0	 0.0
2.75556 0.0222222	 0.0
2.73333 0.0222222	 0.0
2.75556 0	 0.0
2.77778 0	 0.0
2.77778 0.0222222	 0.0
2.75556 0.0222222	 0.0
2.77778 0	 0.0
2.8 0	 0.0
2.8 0.0222222	 0.0
2.77778 0.0222222	 0.0
2.8 0	 0.0
2.82222 0	 0.0
2.82222 0.0222222	 0.0
2.8 0.0222222	 0.0
2.82222 0	 0.0
2.84444 0	 0.0
2.84444 0.0222222	 0.0
2.82222 0.0222222	 0.0
2.84444 0	 0.0
2.86667 0	 0.0
2.86667 0.0222222	 0.0
2.84444 0.0222222	 0.0
2.86667 0	 0.0
2.88889 0	 0.0
2.88889 0.0222222	 0.0
2.86667 0.0222222	 0.0
2.88889 0	 0.0
2.91111 0	 0.0
2.91111 0.0222222	 0.0
2.88889 0.0222222	 0.0
2.91111 0	 0.0
[...]
POINT_DATA 23424
SCALARS levelset_first float
LOOKUP_TABLE default
-0.882571
-0.849729
-0.823556
-0.856398
-0.849729
-0.817875
-0.791702
-0.823556
-0.817875
-0.787009
-0.760836
-0.791702
-0.787009
-0.75713
-0.730957
-0.760836
-0.75713
-0.728239
-0.702066
-0.730957
-0.728239
-0.700336
-0.674163
-0.702066
-0.700336
-0.67342
-0.647247
-0.674163
-0.67342
-0.647492
-0.621319
-0.647247
-0.647492
-0.622552
-0.596379
-0.621319
-0.622552
-0.598599
-0.572426
-0.596379
-0.598599
-0.575634
-0.549461
-0.572426
-0.575634
-0.553657
-0.527484
-0.549461
-0.553657
-0.532667
-0.506494
-0.527484
-0.532667
-0.512665
-0.486492
-0.506494
-0.512665
-0.49365
-0.467478
-0.486492
-0.49365
-0.475624
-0.449451
-0.467478
-0.475624
-0.458585
-0.432412
-0.449451
-0.458585
-0.442533
-0.41636
-0.432412
-0.442533
-0.427469
-0.401296
-0.41636
-0.427469
-0.413393
-0.38722
-0.401296
-0.413393
-0.400305
-0.374132
-0.38722
-0.400305
-0.388204
-0.362031
-0.374132
-0.388204
-0.37709
-0.350918
-0.362031
-0.37709
-0.366965
-0.340792
-0.350918
-0.366965
-0.357827
-0.331654
-0.340792
-0.357827
-0.349677
-0.323504
-0.331654
-0.349677
-0.342514
-0.316341
-0.323504
-0.342514
-0.336339
-0.310166
-0.316341
-0.336339
-0.331152
-0.304979
-0.310166
-0.331152
-0.326952
-0.300779
-0.304979
-0.326952
-0.32374
-0.297567
-0.300779
-0.32374
-0.321516
-0.295343
-0.297567
-0.321516
-0.320279
-0.294107
-0.295343
-0.320279
-0.32003
-0.293858
-0.294107
-0.32003
-0.320769
-0.294596
-0.293858
-0.320769
-0.322495
-0.296322
-0.294596
-0.322495
-0.325209
-0.299036
-0.296322
-0.325209
-0.328911
-0.302738
-0.299036
-0.328911
-0.3336
-0.307427
-0.302738
-0.3336
-0.339277
-0.313104
-0.307427
-0.339277
-0.345942
-0.319769
-0.313104
-0.345942
-0.353594
-0.327421
-0.319769
-0.353594
-0.362234
-0.336061
-0.327421
-0.362234
-0.371861
-0.345688
-0.336061
-0.371861
-0.382476
-0.356304
-0.345688
-0.382476
-0.394079
-0.367906
-0.356304
-0.394079
-0.40667
-0.380497
-0.367906
-0.40667
-0.420248
-0.394075
-0.380497
-0.420248
-0.434814
-0.408641
-0.394075
-0.434814
-0.450367
-0.424194
-0.408641
-0.450367
-0.466908
-0.440735
-0.424194
-0.466908
-0.484437
-0.458264
-0.440735
-0.484437
-0.502953
-0.476781
-0.458264
-0.502953
-0.522458
-0.496285
-0.476781
-0.522458
-0.542949
-0.516776
-0.496285
-0.542949
-0.564429
-0.538256
-0.516776
-0.564429
-0.586896
-0.560723
-0.538256
-0.586896
-0.61035
-0.584178
-0.560723
-0.61035
-0.634793
-0.60862
-0.584178
-0.634793
-0.660223
-0.63405
-0.60862
-0.660223
-0.68664
-0.660468
-0.63405
-0.68664
-0.714046
-0.687873
-0.660468
-0.714046
-0.742439
-0.716266
-0.687873
-0.742439
-0.771819
-0.745646
-0.716266
-0.771819
-0.802188
-0.776015
-0.745646
-0.802188
-0.833543
-0.807371
-0.776015
-0.833543
-0.865887
-0.839714
-0.807371
-0.865887
-0.899218
-0.873045
-0.839714
-0.899218
-0.933537
-0.907364
-0.873045
-0.933537
-0.968844
-0.942671
-0.907364
-0.968844
-1.00514
-0.978965
-0.942671
-1.00514
-1.04242
-1.01625
-0.978965
-1.04242
-1.08069
-1.05452
-1.01625
-1.08069
-1.11995
-1.09377
-1.05452
-1.11995
-1.16019
-1.13402
-1.09377
-1.16019
-1.20142
-1.17525
-1.13402
-1.20142
-1.24364
-1.21747
-1.17525
-1.24364
-1.28685
-1.26068
-1.21747
-1.28685
-1.33105
-1.30487
-1.26068
-1.33105
-1.37623
-1.35006
-1.30487
-1.37623
-1.4224
-1.39623
-1.35006
-1.4224
-1.46956
-1.44339
-1.39623
-1.46956
-1.51771
-1.49153
-1.44339
-1.51771
-1.56684
-1.54067
-1.49153
-1.56684
-1.61696
-1.59079
-1.54067
-1.61696
-1.66807
-1.6419
-1.59079
-1.66807
-1.72017
-1.69399
-1.6419
-1.72017
-1.77325
-1.74708
-1.69399
-1.77325
-1.82732
-1.80115
-1.74708
-1.82732
-1.88238
-1.85621
-1.80115
-1.88238
-1.93843
-1.91226
-1.85621
-1.93843
-1.99546
-1.96929
-1.91226
-1.99546
-2.05349
-2.02731
-1.96929
-2.05349
-2.1125
-2.08632
-2.02731
-2.1125
-2.17249
-2.14632
-2.08632
-2.17249
-2.23348
-2.20731
-2.14632
-2.23348
-2.29545
-2.26928
-2.20731
-2.29545
-2.35841
-2.33224
-2.26928
-2.35841
-2.42236
-2.39619
-2.33224
-2.42236
-2.4873
-2.46113
-2.39619
-2.4873
-2.55322
-2.52705
-2.46113
-2.55322
-2.62013
-2.59396
-2.52705
-2.62013
-2.68803
-2.66186
-2.59396
-2.68803
-2.75692
-2.73075
-2.66186
-2.75692
-2.82679
-2.80062
-2.73075
-2.82679
-2.89766
-2.87148
-2.80062
-2.89766
-2.96951
-2.94333
-2.87148
-2.96951
-3.04234
-3.01617
-2.94333
-3.04234
-3.11617
-3.09
-3.01617
-3.11617
-3.19098
-3.16481
-3.09
-3.19098
-3.26678
-3.24061
-3.16481
-3.26678
-3.34357
-3.3174
-3.24061
-3.34357
-3.42135
-3.39517
-3.3174
-3.42135
-3.50011
-3.47394
-3.39517
-3.50011
-3.57986
-3.55369
-3.47394
-3.57986
-3.6606
-3.63443
-3.55369
-3.6606
-3.74233
-3.71615
-3.63443
-3.74233
-3.82504
-3.79887
-3.71615
-3.82504
-3.90874
-3.88257
-3.79887
-3.90874
-3.99343
-3.96726
-3.88257
-3.99343
-4.07911
-4.05293
-3.96726
-4.07911
-4.16577
-4.1396
-4.05293
-4.16577
-4.25342
-4.22725
-4.1396
-4.25342
-4.34206
-4.31589
-4.22725
-4.34206
-4.43169
-4.40552
-4.31589
-4.43169
-4.52231
-4.49613
-4.40552
-4.52231
-4.61391
-4.58774
-4.49613
-4.61391
-4.7065
-4.68033
-4.58774
-4.7065
-4.80008
-4.77391
-4.68033
-4.80008
-4.89464
-4.86847
-4.77391
-4.89464
-4.9902
-4.96402
-4.86847
-4.9902
-5.08674
-5.06057
-4.96402
-5.08674
-5.18427
-5.15809
-5.06057
-5.18427
-5.28278
-5.25661
-5.15809
-5.28278
-5.38229
-5.35611
-5.25661
-0.856398
-0.823556
-0.798371
-0.831213
-0.823556
-0.791702
-0.766517
-0.798371
-0.791702
-0.760836
-0.735651
-0.766517
-0.760836
-0.730957
-0.705772
-0.735651
-0.730957
-0.702066
-0.676881
-0.705772
-0.702066
-0.674163
-0.648978
-0.676881
-0.674163
-0.647247
-0.622062
-0.648978
-0.647247
-0.621319
-0.596134
-0.622062
-0.621319
-0.596379
-0.571194
-0.596134
-0.596379
-0.572426
-0.547241
-0.571194
-0.572426
-0.549461
-0.524276
-0.547241
-0.549461
-0.527484
-0.502299
-0.524276
-0.527484
-0.506494
-0.481309
-0.502299
-0.506494
-0.486492
-0.461307
-0.481309
-0.486492
-0.467478
-0.442292
-0.461307
-0.467478
-0.449451
-0.424266
-0.442292
-0.449451
-0.432412
-0.407226
-0.424266
-0.432412
-0.41636
-0.391175
-0.407226
-0.41636
-0.401296
-0.376111
-0.391175
-0.401296
-0.38722
-0.362035
-0.376111
-0.38722
-0.374132
-0.348947
-0.362035
-0.374132
-0.362031
-0.336846
-0.348947
-0.362031
-0.350918
-0.325732
-0.336846
-0.350918
-0.340792
-0.315607
-0.325732
-0.340792
-0.331654
-0.306469
-0.315607
-0.331654
-0.323504
-0.298319
-0.306469
-0.323504
-0.316341
-0.291156
-0.298319
-0.316341
-0.310166
-0.284981
-0.291156
-0.310166
-0.304979
-0.279794
-0.284981
-0.304979
-0.300779
-0.275594
-0.279794
-0.300779
-0.297567
-0.272382
-0.275594
-0.297567
-0.295343
-0.270158
-0.272382
-0.295343
-0.294107
-0.268921
-0.270158
-0.294107
-0.293858
-0.268672
-0.268921
-0.293858
-0.294596
-0.269411
-0.268672
-0.294596
-0.296322
-0.271137
-0.269411
-0.296322
-0.299036
-0.273851
-0.271137
-0.299036
-0.302738
-0.277553
-0.273851
-0.302738
-0.307427
-0.282242
-0.277553
-0.307427
-0.313104
-0.287919
-0.282242
-0.313104
-0.319769
-0.294584
-0.287919
-0.319769
-0.327421
-0.302236
-0.294584
-0.327421
-0.336061
-0.310876
-0.302236
-0.336061
-0.345688
-0.320503
-0.310876
-0.345688
-0.356304
-0.331118
-0.320503
-0.356304
-0.367906
-0.342721
-0.331118
-0.367906
-0.380497
-0.355312
-0.342721
-0.380497
-0.394075
-0.36889
-0.355312
-0.394075
-0.408641
-0.383456
-0.36889
-0.408641
-0.424194
-0.399009
-0.383456
-0.424194
-0.440735
-0.41555
-0.399009
-0.440735
-0.458264
-0.433079
-0.41555
-0.458264
-0.476781
-0.451595
-0.433079
-0.476781
-0.496285
-0.4711
-0.451595
-0.496285
-0.516776
-0.491591
-0.4711
-0.516776
-0.538256
-0.513071
-0.491591
-0.538256
-0.560723
-0.535538
-0.513071
-0.560723
-0.584178
-0.558992
-0.535538
-0.584178
-0.60862
-0.583435
-0.558992
-0.60862
-0.63405
-0.608865
-0.583435
-0.63405
-0.660468
-0.635282
-0.608865
-0.660468
-0.687873
-0.662688
-0.635282
-0.687873
-0.716266
-0.691081
-0.662688
-0.716266
-0.745646
-0.720461
-0.691081
-0.745646
-0.776015
-0.75083
-0.720461
-0.776015
-0.807371
-0.782185
-0.75083
-0.807371
-0.839714
-0.814529
-0.782185
-0.839714
-0.873045
-0.84786
-0.814529
-0.873045
-0.907364
-0.882179
-0.84786
-0.907364
-0.942671
-0.917486
-0.882179
-0.942671
-0.978965
-0.95378
-0.917486
-0.978965
-1.01625
-0.991062
-0.95378
-1.01625
-1.05452
-1.02933
-0.991062
-1.05452
-1.09377
-1.06859
-1.02933
-1.09377
-1.13402
-1.10883
-1.06859
-1.13402
-1.17525
-1.15007
-1.10883
-1.17525
-1.21747
-1.19229
-1.15007
-1.21747
-1.26068
-1.23549
-1.19229
-1.26068
-1.30487
-1.27969
-1.23549
-1.30487
-1.35006
-1.32487
-1.27969
-1.35006
-1.39623
-1.37104
-1.32487
-1.39623
-1.44339
-1.4182
-1.37104
-1.44339
-1.49153
-1.46635
-1.4182
-1.49153
-1.54067
-1.51548
-1.46635
-1.54067
-1.59079
-1.5656
-1.51548
-1.59079
-1.6419
-1.61671
-1.5656
-1.6419
-1.69399
-1.66881
-1.61671
-1.69399
-1.74708
-1.72189
-1.66881
-1.74708
-1.80115
-1.77596
-1.72189
-1.80115
-1.85621
-1.83102
-1.77596
-1.85621
-1.91226
-1.88707
-1.83102
-1.91226
-1.96929
-1.94411
-1.88707
-1.96929
-2.02731
-2.00213
-1.94411
-2.02731
-2.08632
-2.06114
-2.00213
-2.08632
-2.14632
-2.12114
-2.06114
-2.14632
-2.20731
-2.18212
-2.12114
-2.20731
-2.26928
-2.2441
-2.18212
-2.26928
-2.33224
-2.30706
-2.2441
-2.33224
-2.39619
-2.37101
-2.30706
-2.39619
-2.46113
-2.43594
-2.37101
-2.46113
-2.52705
-2.50187
-2.43594
-2.52705
-2.59396
-2.56878
-2.50187
-2.59396
-2.66186
-2.63668
-2.56878
-2.66186
-2.73075
-2.70556
-2.63668
-2.73075
-2.80062
-2.77544
-2.70556
-2.80062
-2.87148
-2.8463
-2.77544
-2.87148
-2.94333
-2.91815
-2.8463
-2.94333
-3.01617
-2.99099
-2.91815
-3.01617
-3.09
-3.06481
-2.99099
-3.09
-3.16481
-3.13962
-3.06481
-3.16481
-3.24061
-3.21542
-3.13962
-3.24061
-3.3174
-3.29221
-3.21542
-3.3174
-3.39517
-3.36999
-3.29221
-3.39517
-3.47394
-3.44875
-3.36999
-3.47394
-3.55369
-3.5285
-3.44875
-3.55369
-3.63443
-3.60924
-3.5285
-3.63443
-3.71615
-3.69097
-3.60924
-3.71615
-3.79887
-3.77368
-3.69097
-3.79887
-3.88257
-3.85738
-3.77368
-3.88257
-3.96726
-3.94207
-3.85738
-3.96726
-4.05293
-4.02775
-3.94207
-4.05293
-4.1396
-4.11441
-4.02775
-4.1396
-4.22725
-4.20207
-4.11441
-4.22725
-4.31589
-4.29071
-4.20207
-4.31589
-4.40552
-4.38033
-4.29071
-4.40552
-4.49613
-4.47095
-4.38033
-4.49613
-4.58774
-4.56255
-4.47095
-4.58774
-4.68033
-4.65514
-4.56255
-4.68033
-4.77391
-4.74872
-4.65514
-4.77391
-4.86847
-4.84329
-4.74872
-4.86847
-4.96402
-4.93884
-4.84329
-4.96402
-5.06057
-5.03538
-4.93884
-5.06057
-5.15809
-5.13291
-5.03538
-5.15809
-5.25661
-5.23143
-5.13291
-5.25661
-5.35611
-5.33093
-5.23143
-0.831213
-0.798371
-0.774174
-0.807015
-0.798371
-0.766517
-0.74232
-0.774174
-0.766517
-0.735651
-0.711453
-0.74232
-0.735651
-0.705772
-0.681575
-0.711453
-0.705772
-0.676881
-0.652684
-0.681575
-0.676881
-0.648978
-0.62478
-0.652684
-0.648978
-0.622062
-0.597865
-0.62478
-0.622062
-0.596134
-0.571937
-0.597865
-0.596134
-0.571194
-0.546996
-0.571937
-0.571194
-0.547241
-0.523044
-0.546996
-0.547241
-0.524276
-0.500079
-0.523044
-0.524276
-0.502299
-0.478101
-0.500079
-0.502299
-0.481309
-0.457111
-0.478101
-0.481309
-0.461307
-0.437109
-0.457111
-0.461307
-0.442292
-0.418095
-0.437109
-0.442292
-0.424266
-0.400068
-0.418095
-0.424266
-0.407226
-0.383029
-0.400068
-0.407226
-0.391175
-0.366977
-0.383029
-0.391175
-0.376111
-0.351914
-0.366977
-0.376111
-0.362035
-0.337837
-0.351914
-0.362035
-0.348947
-0.324749
-0.337837
-0.348947
-0.336846
-0.312648
-0.324749
-0.336846
-0.325732
-0.301535
-0.312648
-0.325732
-0.315607
-0.291409
-0.301535
-0.315607
-0.306469
-0.282271
-0.291409
-0.306469
-0.298319
-0.274121
-0.282271
-0.298319
-0.291156
-0.266959
-0.274121
-0.291156
-0.284981
-0.260784
-0.266959
-0.284981
-0.279794
-0.255596
-0.260784
-0.279794
-0.275594
-0.251397
-0.255596
-0.275594
-0.272382
-0.248185
-0.251397
-0.272382
-0.270158
-0.24596
-0.248185
-0.270158
-0.268921
-0.244724
-0.24596
-0.268921
-0.268672
-0.244475
-0.244724
-0.268672
-0.269411
-0.245213
-0.244475
-0.269411
-0.271137
-0.24694
-0.245213
-0.271137
-0.273851
-0.249654
-0.24694
-0.273851
-0.277553
-0.253355
-0.249654
-0.277553
-0.282242
-0.258045
-0.253355
-0.282242
-0.287919
-0.263721
-0.258045
-0.287919
-0.294584
-0.270386
-0.263721
-0.294584
-0.302236
-0.278038
-0.270386
-0.302236
-0.310876
-0.286678
-0.278038
-0.310876
-0.320503
-0.296306
-0.286678
-0.320503
-0.331118
-0.306921
-0.296306
-0.331118
-0.342721
-0.318524
-0.306921
-0.342721
-0.355312
-0.331114
-0.318524
-0.355312
-0.36889
-0.344692
-0.331114
-0.36889
-0.383456
-0.359258
-0.344692
-0.383456
-0.399009
-0.374812
-0.359258
-0.399009
-0.41555
-0.391353
-0.374812
-0.41555
-0.433079
-0.408881
-0.391353
-0.433079
-0.451595
-0.427398
-0.408881
-0.451595
-0.4711
-0.446902
-0.427398
-0.4711
-0.491591
-0.467394
-0.446902
-0.491591
-0.513071
-0.488873
-0.467394
-0.513071
-0.535538
-0.51134
-0.488873
-0.535538
-0.558992
-0.534795
-0.51134
-0.558992
-0.583435
-0.559237
-0.534795
-0.583435
-0.608865
-0.584667
-0.559237
-0.608865
-0.635282
-0.611085
-0.584667
-0.635282
-0.662688
-0.63849
-0.611085
-0.662688
-0.691081
-0.666883
-0.63849
-0.691081
-0.720461
-0.696264
-0.666883
-0.720461
-0.75083
-0.726632
-0.696264
-0.75083
-0.782185
-0.757988
-0.726632
-0.782185
-0.814529
-0.790331
-0.757988
-0.814529
-0.84786
-0.823663
-0.790331
-0.84786
-0.882179
-0.857982
-0.823663
-0.882179
-0.917486
-0.893288
-0.857982
-0.917486
-0.95378
-0.929582
-0.893288
-0.95378
-0.991062
-0.966864
-0.929582
-0.991062
-1.02933
-1.00513
-0.966864
-1.02933
-1.06859
-1.04439
-1.00513
-1.06859
-1.10883
-1.08464
-1.04439
-1.10883
-1.15007
-1.12587
-1.08464
-1.15007
-1.19229
-1.16809
-1.12587
-1.19229
-1.23549
-1.2113
-1.16809
-1.23549
-1.27969
-1.25549
-1.2113
-1.27969
-1.32487
-1.30067
-1.25549
-1.32487
-1.37104
-1.34685
-1.30067
-1.37104
-1.4182
-1.394
-1.34685
-1.4182
-1.46635
-1.44215
-1.394
-1.46635
-1.51548
-1.49128
-1.44215
-1.51548
-1.5656
-1.5414
-1.49128
-1.5656
-1.61671
-1.59251
-1.5414
-1.61671
-1.66881
-1.64461
-1.59251
-1.66881
-1.72189
-1.69769
-1.64461
-1.72189
-1.77596
-1.75177
-1.69769
-1.77596
-1.83102
-1.80683
-1.75177
-1.83102
-1.88707
-1.86287
-1.80683
-1.88707
-1.94411
-1.91991
-1.86287
-1.94411
-2.00213
-1.97793
-1.91991
-2.00213
-2.06114
-2.03694
-1.97793
-2.06114
-2.12114
-2.09694
-2.03694
-2.12114
-2.18212
-2.15792
-2.09694
-2.18212
-2.2441
-2.2199
-2.15792
-2.2441
-2.30706
-2.28286
-2.2199
-2.30706
-2.37101
-2.34681
-2.28286
-2.37101
-2.43594
-2.41174
-2.34681
-2.43594
-2.50187
-2.47767
-2.41174
-2.50187
-2.56878
-2.54458
-2.47767
-2.56878
-2.63668
-2.61248
-2.54458
-2.63668
-2.70556
-2.68136
-2.61248
-2.70556
-2.77544
-2.75124
-2.68136
-2.77544
-2.8463
-2.8221
-2.75124
-2.8463
-2.91815
-2.89395
-2.8221
-2.91815
-2.99099
-2.96679
-2.89395
-2.99099
-3.06481
-3.04061
-2.96679
-3.06481
-3.13962
-3.11543
-3.04061
-3.13962
-3.21542
-3.19123
-3.11543
-3.21542
-3.29221
-3.26801
-3.19123
-3.29221
-3.36999
-3.34579
-3.26801
-3.36999
-3.44875
-3.42455
-3.34579
-3.44875
-3.5285
-3.5043
-3.42455
-3.5285
-3.60924
-3.58504
-3.5043
-3.60924
-3.69097
-3.66677
-3.58504
-3.69097
-3.77368
-3.74948
-3.66677
-3.77368
-3.85738
-3.83319
-3.74948
-3.85738
-3.94207
-3.91787
-3.83319
-3.94207
-4.02775
-4.00355
-3.91787
-4.02775
-4.11441
-4.09022
-4.00355
-4.11441
-4.20207
-4.17787
-4.09022
-4.20207
-4.29071
-4.26651
-4.17787
-4.29071
-4.38033
-4.35614
-4.26651
-4.38033
-4.47095
-4.44675
-4.35614
-4.47095
-4.56255
-4.53835
-4.44675
-4.56255
-4.65514
-4.63094
-4.53835
-4.65514
-4.74872
-4.72452
-4.63094
-4.74872
-4.84329
-4.81909
-4.72452
-4.84329
-4.93884
-4.91464
-4.81909
-4.93884
-5.03538
-5.01118
-4.91464
-5.03538
-5.13291
-5.10871
-5.01118
-5.13291
-5.23143
-5.20723
-5.10871
-5.23143
-5.33093
-5.30673
-5.20723
-0.807015
-0.774174
-0.750964
-0.783805
-0.774174
-0.74232
-0.71911
-0.750964
-0.74232
-0.711453
-0.688244
-0.71911
-0.711453
-0.681575
-0.658365
-0.688244
-0.681575
-0.652684
-0.629474
-0.658365
-0.652684
-0.62478
-0.601571
-0.629474
-0.62478
-0.597865
-0.574655
-0.601571
-0.597865
-0.571937
-0.548727
-0.574655
-0.571937
-0.546996
-0.523786
-0.548727
-0.546996
-0.523044
-0.499834
-0.523786
-0.523044
-0.500079
-0.476869
-0.499834
-0.500079
-0.478101
-0.454891
-0.476869
-0.478101
-0.457111
-0.433902
-0.454891
-0.457111
-0.437109
-0.413899
-0.433902
-0.437109
-0.418095
-0.394885
-0.413899
-0.418095
-0.400068
-0.376858
-0.394885
-0.400068
-0.383029
-0.359819
-0.376858
-0.383029
-0.366977
-0.343768
-0.359819
-0.366977
-0.351914
-0.328704
-0.343768
-0.351914
-0.337837
-0.314628
-0.328704
-0.337837
-0.324749
-0.301539
-0.314628
-0.324749
-0.312648
-0.289438
-0.301539
-0.312648
-0.301535
-0.278325
-0.289438
-0.301535
-0.291409
-0.268199
-0.278325
-0.291409
-0.282271
-0.259062
-0.268199
-0.282271
-0.274121
-0.250911
-0.259062
-0.274121
-0.266959
-0.243749
-0.250911
-0.266959
-0.260784
-0.237574
-0.243749
-0.260784
-0.255596
-0.232387
-0.237574
-0.255596
-0.251397
-0.228187
-0.232387
-0.251397
-0.248185
-0.224975
-0.228187
-0.248185
-0.24596
-0.222751
-0.224975
-0.24596
-0.244724
-0.221514
-0.222751
-0.244724
-0.244475
-0.221265
-0.221514
-0.244475
-0.245213
-0.222004
-0.221265
-0.245213
-0.24694
-0.22373
-0.222004
-0.24694
-0.249654
-0.226444
-0.22373
-0.249654
-0.253355
-0.230145
-0.226444
-0.253355
-0.258045
-0.234835
-0.230145
-0.258045
-0.263721
-0.240512
-0.234835
-0.263721
-0.270386
-0.247176
-0.240512
-0.270386
-0.278038
-0.254828
-0.247176
-0.278038
-0.286678
-0.263468
-0.254828
-0.286678
-0.296306
-0.273096
-0.263468
-0.296306
-0.306921
-0.283711
-0.273096
-0.306921
-0.318524
-0.295314
-0.283711
-0.318524
-0.331114
-0.307904
-0.295314
-0.331114
-0.344692
-0.321482
-0.307904
-0.344692
-0.359258
-0.336048
-0.321482
-0.359258
-0.374812
-0.351602
-0.336048
-0.374812
-0.391353
-0.368143
-0.351602
-0.391353
-0.408881
-0.385672
-0.368143
-0.408881
-0.427398
-0.404188
-0.385672
-0.427398
-0.446902
-0.423692
-0.404188
-0.446902
-0.467394
-0.444184
-0.423692
-0.467394
-0.488873
-0.465663
-0.444184
-0.488873
-0.51134
-0.48813
-0.465663
-0.51134
-0.534795
-0.511585
-0.48813
-0.534795
-0.559237
-0.536027
-0.511585
-0.559237
-0.584667
-0.561457
-0.536027
-0.584667
-0.611085
-0.587875
-0.561457
-0.611085
-0.63849
-0.61528
-0.587875
-0.63849
-0.666883
-0.643673
-0.61528
-0.666883
-0.696264
-0.673054
-0.643673
-0.696264
-0.726632
-0.703422
-0.673054
-0.726632
-0.757988
-0.734778
-0.703422
-0.757988
-0.790331
-0.767122
-0.734778
-0.790331
-0.823663
-0.800453
-0.767122
-0.823663
-0.857982
-0.834772
-0.800453
-0.857982
-0.893288
-0.870078
-0.834772
-0.893288
-0.929582
-0.906372
-0.870078
-0.929582
-0.966864
-0.943654
-0.906372
-0.966864
-1.00513
-0.981924
-0.943654
-1.00513
-1.04439
-1.02118
-0.981924
-1.04439
-1.08464
-1.06143
-1.02118
-1.08464
-1.12587
-1.10266
-1.06143
-1.12587
-1.16809
-1.14488
-1.10266
-1.16809
-1.2113
-1.18809
-1.14488
-1.2113
-1.25549
-1.23228
-1.18809
-1.25549
-1.30067
-1.27746
-1.23228
-1.30067
-1.34685
-1.32364
-1.27746
-1.34685
-1.394
-1.37079
-1.32364
-1.394
-1.44215
-1.41894
-1.37079
-1.44215
-1.49128
-1.46807
-1.41894
-1.49128
-1.5414
-1.51819
-1.46807
-1.5414
-1.59251
-1.5693
-1.51819
-1.59251
-1.64461
-1.6214
-1.5693
-1.64461
-1.69769
-1.67448
-1.6214
-1.69769
-1.75177
-1.72856
-1.67448
-1.75177
-1.80683
-1.78362
-1.72856
-1.80683
-1.86287
-1.83966
-1.78362
-1.86287
-1.91991
-1.8967
-1.83966
-1.91991
-1.97793
-1.95472
-1.8967
-1.97793
-2.03694
-2.01373
-1.95472
-2.03694
-2.09694
-2.07373
-2.01373
-2.09694
-2.15792
-2.13472
-2.07373
-2.15792
-2.2199
-2.19669
-2.13472
-2.2199
-2.28286
-2.25965
-2.19669
-2.28286
-2.34681
-2.3236
-2.25965
-2.34681
-2.41174
-2.38853
-2.3236
-2.41174
-2.47767
-2.45446
-2.38853
-2.47767
-2.54458
-2.52137
-2.45446
-2.54458
-2.61248
-2.58927
-2.52137
-2.61248
-2.68136
-2.65816
-2.58927
-2.68136
-2.75124
-2.72803
-2.65816
-2.75124
-2.8221
-2.79889
-2.72803
-2.8221
-2.89395
-2.87074
-2.79889
-2.89395
-2.96679
-2.94358
-2.87074
-2.96679
-3.04061
-3.0174
-2.94358
-3.04061
-3.11543
-3.09222
-3.0174
-3.11543
-3.19123
-3.16802
-3.09222
-3.19123
-3.26801
-3.2448
-3.16802
-3.26801
-3.34579
-3.32258
-3.2448
-3.34579
-3.42455
-3.40134
-3.32258
-3.42455
-3.5043
-3.4811
-3.40134
-3.5043
-3.58504
-3.56183
-3.4811
-3.58504
-3.66677
-3.64356
-3.56183
-3.66677
-3.74948
-3.72627
-3.64356
-3.74948
-3.83319
-3.80998
-3.72627
-3.83319
-3.91787
-3.89466
-3.80998
-3.91787
-4.00355
-3.98034
-3.89466
-4.00355
-4.09022
-4.06701
-3.98034