# vtk DataFile Version 1.0
unstructured Grid
ASCII
DATASET UNSTRUCTURED_GRID
POINTS 23424 float 
0 0	 0.0
0.0222222 0	 0.0
0.0222222 0.0222222	 0.0
0 0.0222222	 0.0
0.0222222 0	 0.0
0.0444444 0	 0.0
0.0444444 0.0222222	 0.0
0.0222222 0.0222222	 0.0
0.0444444 0	 0.0
0.0666667 0	 0.0
0.0666667 0.0222222	 0.0
0.0444444 0.0222222	 0.0
0.0666667 0	 0.0
0.0888889 0	 0.0
0.0888889 0.0222222	 0.0
0.0666667 0.0222222	 0.0
0.0888889 0	 0.0
0.111111 0	 0.0
0.111111 0.0222222	 0.0
0.0888889 0.0222222	 0.0
0.111111 0	 0.0
0.133333 0	 0.0
0.133333 0.0222222	 0.0
0.111111 0.0222222	 0.0
0.133333 0	 0.0
0.155556 0	 0.0
0.155556 0.0222222	 0.0
0.133333 0.0222222	 0.0
0.155556 0	 0.0
0.177778 0	 0.0
0.177778 0.0222222	 0.0
0.155556 0.0222222	 0.0
0.177778 0	 0.0
0.2 0	 0.0
0.2 0.0222222	 0.0
0.177778 0.0222222	 0.0
0.2 0	 0.0
0.222222 0	 0.0
0.222222 0.0222222	 0.0
0.2 0.0222222	 0.0
0.222222 0	 0.0
0.244444 0	 0.0
0.244444 0.0222222	 0.0
0.222222 0.0222222	 0.0
0.244444 0	 0.0
0.266667 0	 0.0
0.266667 0.0222222	 0.0
0.244444 0.0222222	 0.0
0.266667 0	 0.0
0.288889 0	 0.0
0.288889 0.0222222	 0.0
0.266667 0.0222222	 0.0
0.288889 0	 0.0
0.311111 0	 0.0
0.311111 0.0222222	 0.0
0.288889 0.0222222	 0.0
0.311111 0	 0.0
0.333333 0	 0.0
0.333333 0.0222222	 0.0
0.311111 0.0222222	 0.0
0.333333 0	 0.0
0.355556 0	 0.0
0.355556 0.0222222	 0.0
0.333333 0.0222222	 0.0
0.355556 0	 0.0
0.377778 0	 0.0
0.377778 0.0222222	 0.0
0.355556 0.0222222	 0.0
0.377778 0	 0.0
0.4 0	 0.0
0.4 0.0222222	 0.0
0.377778 0.0222222	 0.0
0.4 0	 0.0
0.422222 0	 0.0
0.422222 0.0222222	 0.0
0.4 0.0222222	 0.0
0.422222 0	 0.0
0.444444 0	 0.0
0.444444 0.0222222	 0.0
0.422222 0.0222222	 0.0
0.444444 0	 0.0
0.466667 0	 0.0
0.466667 0.0222222	 0.0
0.444444 0.0222222	 0.0
0.466667 0	 0.0
0.488889 0	 0.0
0.488889 0.0222222	 0.0
0.466667 0.0222222	 0.0
0.488889 0	 0.0
0.511111 0	 0.0
0.511111 0.0222222	 0.0
0.488889 0.0222222	 0.0
0.511111 0	 0.0
0.533333 0	 0.0
0.533333 0.0222222	 0.0
0.511111 0.0222222	 0.0
0.533333 0	 0.0
0.555556 0	 0.0
0.555556 0.0222222	 0.0
0.533333 0.0222222	 0.0
0.555556 0	 0.0
0.577778 0	 0.0
0.577778 0.0222222	 0.0
0.555556 0.0222222	 0.0
0.577778 0	 0.0
0.6 0	 0.0
0.6 0.0222222	 0.0
0.577778 0.0222222	 0.0
0.6 0	 0.0
0.622222 0	 0.0
0.622222 0.0222222	 0.0
0.6 0.0222222	 0.0
0.622222 0	 0.0
0.644444 0	 0.0
0.644444 0.0222222	 0.0
0.622222 0.0222222	 0.0
0.644444 0	 0.0
0.666667 0	 0.0
0.666667 0.0222222	 0.0
0.644444 0.0222222	 0.0
0.666667 0	 0.0
0.688889 0	 0.0
0.688889 0.0222222	 0.0
0.666667 0.0222222	 0.0
0.688889 0	 0.0
0.711111 0	 0.0
0.711111 0.0222222	 0.0
0.688889 0.0222222	 0.0
0.711111 0	 0.0
0.733333 0	 0.0
0.733333 0.0222222	 0.0
0.711111 0.0222222	 0.0
0.733333 0	 0.0
0.755556 0	 0.0
0.755556 0.0222222	 0.0
0.733333 0.0222222	 0.0
0.755556 0	 0.0
0.777778 0	 0.0
0.777778 0.0222222	 0.0
0.755556 0.0222222	 0.0
0.777778 0	 0.0
0.8 0	 0.0
0.8 0.0222222	 0.0
0.777778 0.0222222	 0.0
0.8 0	 0.0
0.822222 0	 0.0
0.822222 0.0222222	 0.0
0.8 0.0222222	 0.0
0.822222 0	 0.0
0.844444 0	 0.0
0.844444 0.0222222	 0.0
0.822222 0.0222222	 0.0
0.844444 0	 0.0
0.866667 0	 0.0
0.866667 0.0222222	 0.0
0.844444 0.0222222	 0.0
0.866667 0	 0.0
0.888889 0	 0.0
0.888889 0.0222222	 0.0
0.866667 0.0222222	 0.0
0.888889 0	 0.0
0.911111 0	 0.0
0.911111 0.0222222	 0.0
0.888889 0.0222222	 0.0
0.911111 0	 0.0
0.933333 0	 0.0
0.933333 0.0222222	 0.0
0.911111 0.0222222	 0.0
0.933333 0	 0.0
0.955556 0	 0.0
0.955556 0.0222222	 0.0
0.933333 0.0222222	 0.0
0.955556 0	 0.0
0.977778 0	 0.0
0.977778 0.0222222	 0.0
0.955556 0.0222222	 0.0
0.977778 0	 0.0
1 0	 0.0
1 0.0222222	 0.0
0.977778 0.0222222	 0.0
1 0	 0.0
1.02222 0	 0.0
1.02222 0.0222222	 0.0
1 0.0222222	 0.0
1.02222 0	 0.0
1.04444 0	 0.0
1.04444 0.0222222	 0.0
1.02222 0.0222222	 0.0
1.04444 0	 0.0
1.06667 0	 0.0
1.06667 0.0222222	 0.0
1.04444 0.0222222	 0.0
1.06667 0	 0.0
1.08889 0	 0.0
1.08889 0.0222222	 0.0
1.06667 0.0222222	 0.0
1.08889 0	 0.0
1.11111 0	 0.0
1.11111 0.0222222	 0.0
1.08889 0.0222222	 0.0
1.11111 0	 0.0
1.13333 0	 0.0
1.13333 0.0222222	 0.0
1.11111 0.0222222	 0.0
1.13333 0	 0.0
1.15556 0	 0.0
1.15556 0.0222222	 0.0
1.13333 0.0222222	 0.0
1.15556 0	 0.0
1.17778 0	 0.0
1.17778 0.0222222	 0.0
1.15556 0.0222222	 0.0
1.17778 0	 0.0
1.2 0	 0.0
1.2 0.0222222	 0.0
1.17778 0.0222222	 0.0
1.2 0	 0.0
1.22222 0	 0.0
1.22222 0.0222222	 0.0
1.2 0.0222222	 0.0
1.22222 0	 0.0
1.24444 0	 0.0
1.24444 0.0222222	 0.0
1.22222 0.0222222	 0.0
1.24444 0	 0.0
1.26667 0	 0.0
1.26667 0.0222222	 0.0
1.24444 0.0222222	 0.0
1.26667 0	 0.0
1.28889 0	 0.0
1.28889 0.0222222	 0.0
1.26667 0.0222222	 0.0
1.28889 0	 0.0
1.31111 0	 0.0
1.31111 0.0222222	 0.0
1.28889 0.0222222	 0.0
1.31111 0	 0.0
1.33333 0	 0.0
1.33333 0.0222222	 0.0
1.31111 0.0222222	 0.0
1.33333 0	 0.0
1.35556 0	 0.0
1.35556 0.0222222	 0.0
1.33333 0.0222222	 0.0
1.35556 0	 0.0
1.37778 0	 0.0
1.37778 0.0222222	 0.0
1.35556 0.0222222	 0.0
1.37778 0	 0.0
1.4 0	 0.0
1.4 0.0222222	 0.0
1.37778 0.0222222	 0.0
1.4 0	 0.0
1.42222 0	 0.0
1.42222 0.0222222	 0.0
1.4 0.0222222	 0.0
1.42222 0	 0.0
1.44444 0	 0.0
1.44444 0.0222222	 0.0
1.42222 0.0222222	 0.0
1.44444 0	 0.0
1.46667 0	 0.0
1.46667 0.0222222	 0.0
1.44444 0.0222222	 0.0
1.46667 0	 0.0
1.48889 0	 0.0
1.48889 0.0222222	 0.0
1.46667 0.0222222	 0.0
1.48889 0	 0.0
1.51111 0	 0.0
1.51111 0.0222222	 0.0
1.48889 0.0222222	 0.0
1.51111 0	 0.0
1.53333 0	 0.0
1.53333 0.0222222	 0.0
1.51111 0.0222222	 0.0
1.53333 0	 0.0
1.55556 0	 0.0
1.55556 0.0222222	 0.0
1.53333 0.0222222	 0.0
1.55556 0	 0.0
1.57778 0	 0.0
1.57778 0.0222222	 0.0
1.55556 0.0222222	 0.0
1.57778 0	 0.0
1.6 0	 0.0
1.6 0.0222222	 0.0
1.57778 0.0222222	 0.0
1.6 0	 0.0
1.62222 0	 0.0
1.62222 0.0222222	 0.0
1.6 0.0222222	 0.0
1.62222 0	 0.0
1.64444 0	 0.0
1.64444 0.0222222	 0.0
1.62222 0.0222222	 0.0
1.64444 0	 0.0
1.66667 0	 0.0
1.66667 0.0222222	 0.0
1.64444 0.0222222	 0.0
1.66667 0	 0.0
1.68889 0	 0.0
1.68889 0.0222222	 0.0
1.66667 0.0222222	 0.0
1.68889 0	 0.0
1.71111 0	 0.0
1.71111 0.0222222	 0.0
1.68889 0.0222222	 0.0
1.71111 0	 0.0
1.73333 0	 0.0
1.73333 0.0222222	 0.0
1.71111 0.0222222	 0.0
1.73333 0	 0.0
1.75556 0	 0.0
1.75556 0.0222222	 0.0
1.73333 0.0222222	 0.0
1.75556 0	 0.0
1.77778 0	 0.0
1.77778 0.0222222	 0.0
1.75556 0.0222222	 0.0
1.77778 0	 0.0
1.8 0	 0.0
1.8 0.0222222	 0.0
1.77778 0.0222222	 0.0
1.8 0	 0.0
1.82222 0	 0.0
1.82222 0.0222222	 0.0
1.8 0.0222222	 0.0
1.82222 0	 0.0
1.84444 0	 0.0
1.84444 0.0222222	 0.0
1.82222 0.0222222	 0.0
1.84444 0	 0.0
1.86667 0	 0.0
1.86667 0.0222222	 0.0
1.84444 0.0222222	 0.0
1.86667 0	 0.0
1.88889 0	 0.0
1.88889 0.0222222	 0.0
1.86667 0.0222222	 0.0
1.88889 0	 0.0
1.91111 0	 0.0
1.91111 0.0222222	 0.0
1.88889 0.0222222	 0.0
1.91111 0	 0.0
1.93333 0	 0.0
1.93333 0.0222222	 0.0
1.91111 0.0222222	 0.0
1.93333 0	 0.0
1.95556 0	 0.0
1.95556 0.0222222	 0.0
1.93333 0.0222222	 0.0
1.95556 0	 0.0
1.97778 0	 0.0
1.97778 0.0222222	 0.0
1.95556 0.0222222	 0.0
1.97778 0	 0.0
2 0	 0.0
2 0.0222222	 0.0
1.97778 0.0222222	 0.0
2 0	 0.0
2.02222 0	 0.0
2.02222 0.0222222	 0.0
2 0.0222222	 0.0
2.02222 0	 0.0
2.04444 0	 0.0
2.04444 0.0222222	 0.0
2.02222 0.0222222	 0.0
2.04444 0	 0.0
2.06667 0	 0.0
2.06667 0.0222222	 0.0
2.04444 0.0222222	 0.0
2.06667 0	 0.0
2.08889 0	 0.0
2.08889 0.0222222	 0.0
2.06667 0.0222222	 0.0
2.08889 0	 0.0
2.11111 0	 0.0
2.11111 0.0222222	 0.0
2.08889 0.0222222	 0.0
2.11111 0	 0.0
2.13333 0	 0.0
2.13333 0.0222222	 0.0
2.11111 0.0222222	 0.0
2.13333 0	 0.0
2.15556 0	 0.0
2.15556 0.0222222	 0.0
2.13333 0.0222222	 0.0
2.15556 0	 0.0
2.17778 0	 0.0
2.17778 0.0222222	 0.0
2.15556 0.0222222	 0.0
2.17778 0	 0.0
2.2 0	 0.0
2.2 0.0222222	 0.0
2.17778 0.0222222	 0.0
2.2 0	 0.0
2.22222 0	 0.0
2.22222 0.0222222	 0.0
2.2 0.0222222	 0.0
2.22222 0	 0.0
2.24444 0	 0.0
2.24444 0.0222222	 0.0
2.22222 0.0222222	 0.0
2.24444 0	 0.0
2.26667 0	 0.0
2.26667 0.0222222	 0.0
2.24444 0.0222222	 0.0
2.26667 0	 0.0
2.28889 0	 0.0
2.28889 0.0222222	 0.0
2.26667 0.0222222	 0.0
2.28889 0	 0.0
2.31111 0	 0.0
2.31111 0.0222222	 0.0
2.28889 0.0222222	 0.0
2.31111 0	 0.0
2.33333 0	 0.0
2.33333 0.0222222	 0.0
2.31111 0.0222222	 0.0
2.33333 0	 0.0
2.35556 0	 0.0
2.35556 0.0222222	 0.0
2.33333 0.0222222	 0.0
2.35556 0	 0.0
2.37778 0	 0.0
2.37778 0.0222222	 0.0
2.35556 0.0222222	 0.0
2.37778 0	 0.0
2.4 0	 0.0
2.4 0.0222222	 0.0
2.37778 0.0222222	 0.0
2.4 0	 0.0
2.42222 0	 0.0
2.42222 0.0222222	 0.0
2.4 0.0222222	 0.0
2.42222 0	 0.0
2.44444 0	 0.0
2.44444 0.0222222	 0.0
2.42222 0.0222222	 0.0
2.44444 0	 0.0
2.46667 0	 0.0
2.46667 0.0222222	 0.0
2.44444 0.0222222	 0.0
2.46667 0	 0.0
2.48889 0	 0.0
2.48889 0.0222222	 0.0
2.46667 0.0222222	 0.0
2.48889 0	 0.0
2.51111 0	 0.0
2.51111 0.0222222	 0.0
2.48889 0.0222222	 0.0
2.51111 0	 0.0
2.53333 0	 0.0
2.53333 0.0222222	 0.0
2.51111 0.0222222	 0.0
2.53333 0	 0.0
2.55556 0	 0.0
2.55556 0.0222222	 0.0
2.53333 0.0222222	 0.0
2.55556 0	 0.0
2.57778 0	 0.0
2.57778 0.0222222	 0.0
2.55556 0.0222222	 0.0
2.57778 0	 0.0
2.6 0	 0.0
2.6 0.0222222	 0.0
2.57778 0.0222222	 0.0
2.6 0	 0.0
2.62222 0	 0.0
2.62222 0.0222222	 0.0
2.6 0.0222222	 0.0
2.62222 0	 0.0
2.64444 0	 0.0
2.64444 0.0222222	 0.0
2.62222 0.0222222	 0.0
2.64444 0	 0.0
2.66667 0	 0.0
2.66667 0.0222222	 0.0
2.64444 0.0222222	 0.0
2.66667 0	 0.0
2.68889 0	 0.0
2.68889 0.0222222	 0.0
2.66667 0.0222222	 0.0
2.68889 0	 0.0
2.71111 0	 0.0
2.71111 0.0222222	 0.0
2.68889 0.0222222	 0.0
2.71111 0	 0.0
2.73333 0	 0.0
2.73333 0.0222222	 0.0
2.71111 0.0222222	 0.0
2.73333 0	 0.0
2.75556 0	 0.0
2.75556 0.0222222	 0.0
2.73333 0.0222222	 0.0
2.75556 0	 0.0
2.77778 0	 0.0
2.77778 0.0222222	 0.0
2.75556 0.0222222	 0.0
2.77778 0	 0.0
2.8 0	 0.0
2.8 0.0222222	 0.0
2.77778 0.0222222	 0.0
2.8 0	 0.0
2.82222 0	 0.0
2.82222 0.0222222	 0.0
2.8 0.0222222	 0.0
2.82222 0	 0.0
2.84444 0	 0.0
2.84444 0.0222222	 0.0
2.82222 0.0222222	 0.0
2.84444 0	 0.0
2.86667 0	 0.0
2.86667 0.0222222	 0.0
2.84444 0.0222222	 0.0
2.86667 0	 0.0
2.88889 0	 0.0
2.88889 0.0222222	 0.0
2.86667 0.0222222	 0.0
2.88889 0	 0.0
2.91111 0	 0.0
2.91111 0.0222222	 0.0
2.88889 0.0222222	 0.0
2.91111 0	 0.0
[...]
POINT_DATA 23424
SCALARS levelset_first float
LOOKUP_TABLE default
-1.65534
-1.60448
-1.57831
-1.62917
-1.60448
-1.5546
-1.52843
-1.57831
-1.5546
-1.50571
-1.47954
-1.52843
-1.50571
-1.45781
-1.43164
-1.47954
-1.45781
-1.4109
-1.38472
-1.43164
-1.4109
-1.36497
-1.3388
-1.38472
-1.36497
-1.32003
-1.29386
-1.3388
-1.32003
-1.27608
-1.24991
-1.29386
-1.27608
-1.23312
-1.20694
-1.24991
-1.23312
-1.19114
-1.16497
-1.20694
-1.19114
-1.15015
-1.12398
-1.16497
-1.15015
-1.11015
-1.08398
-1.12398
-1.11015
-1.07114
-1.04496
-1.08398
-1.07114
-1.03311
-1.00694
-1.04496
-1.03311
-0.996074
-0.969901
-1.00694
-0.996074
-0.960024
-0.933851
-0.969901
-0.960024
-0.924962
-0.898789
-0.933851
-0.924962
-0.890887
-0.864714
-0.898789
-0.890887
-0.8578
-0.831627
-0.864714
-0.8578
-0.825701
-0.799528
-0.831627
-0.825701
-0.794589
-0.768416
-0.799528
-0.794589
-0.764465
-0.738292
-0.768416
-0.764465
-0.735328
-0.709155
-0.738292
-0.735328
-0.707179
-0.681006
-0.709155
-0.707179
-0.680018
-0.653845
-0.681006
-0.680018
-0.653845
-0.627672
-0.653845
-0.653845
-0.628659
-0.602486
-0.627672
-0.628659
-0.604461
-0.578288
-0.602486
-0.604461
-0.58125
-0.555077
-0.578288
-0.58125
-0.559027
-0.532854
-0.555077
-0.559027
-0.537792
-0.511619
-0.532854
-0.537792
-0.517544
-0.491371
-0.511619
-0.517544
-0.498284
-0.472112
-0.491371
-0.498284
-0.480012
-0.453839
-0.472112
-0.480012
-0.462727
-0.436555
-0.453839
-0.462727
-0.446431
-0.420258
-0.436555
-0.446431
-0.431121
-0.404948
-0.420258
-0.431121
-0.4168
-0.390627
-0.404948
-0.4168
-0.403466
-0.377293
-0.390627
-0.403466
-0.391119
-0.364946
-0.377293
-0.391119
-0.37976
-0.353588
-0.364946
-0.37976
-0.369389
-0.343217
-0.353588
-0.369389
-0.360006
-0.333833
-0.343217
-0.360006
-0.35161
-0.325437
-0.333833
-0.35161
-0.344202
-0.318029
-0.325437
-0.344202
-0.337782
-0.311609
-0.318029
-0.337782
-0.332349
-0.306176
-0.311609
-0.332349
-0.327904
-0.301731
-0.306176
-0.327904
-0.324446
-0.298274
-0.301731
-0.324446
-0.321977
-0.295804
-0.298274
-0.321977
-0.320494
-0.294322
-0.295804
-0.320494
-0.32
-0.293827
-0.294322
-0.32
-0.320493
-0.29432
-0.293827
-0.320493
-0.321974
-0.295801
-0.29432
-0.321974
-0.324442
-0.29827
-0.295801
-0.324442
-0.327899
-0.301726
-0.29827
-0.327899
-0.332342
-0.306169
-0.301726
-0.332342
-0.337774
-0.311601
-0.306169
-0.337774
-0.344193
-0.31802
-0.311601
-0.344193
-0.3516
-0.325427
-0.31802
-0.3516
-0.359994
-0.333821
-0.325427
-0.359994
-0.369376
-0.343203
-0.333821
-0.369376
-0.379746
-0.353573
-0.343203
-0.379746
-0.391103
-0.36493
-0.353573
-0.391103
-0.403448
-0.377275
-0.36493
-0.403448
-0.416781
-0.390608
-0.377275
-0.416781
-0.431101
-0.404928
-0.390608
-0.431101
-0.446409
-0.420236
-0.404928
-0.446409
-0.462705
-0.436532
-0.420236
-0.462705
-0.479988
-0.453815
-0.436532
-0.479988
-0.498259
-0.472086
-0.453815
-0.498259
-0.517517
-0.491345
-0.472086
-0.517517
-0.537764
-0.511591
-0.491345
-0.537764
-0.558998
-0.532825
-0.511591
-0.558998
-0.581219
-0.555046
-0.532825
-0.581219
-0.604428
-0.578255
-0.555046
-0.604428
-0.628625
-0.602452
-0.578255
-0.628625
-0.65381
-0.627637
-0.602452
-0.65381
-0.679982
-0.653809
-0.627637
-0.679982
-0.707142
-0.680969
-0.653809
-0.707142
-0.735289
-0.709116
-0.680969
-0.735289
-0.764424
-0.738251
-0.709116
-0.764424
-0.794547
-0.768374
-0.738251
-0.794547
-0.825658
-0.799485
-0.768374
-0.825658
-0.857756
-0.831583
-0.799485
-0.857756
-0.890841
-0.864669
-0.831583
-0.890841
-0.924915
-0.898742
-0.864669
-0.924915
-0.959976
-0.933803
-0.898742
-0.959976
-0.996025
-0.969852
-0.933803
-0.996025
-1.03306
-1.00689
-0.969852
-1.03306
-1.07108
-1.04491
-1.00689
-1.07108
-1.1101
-1.08392
-1.04491
-1.1101
-1.1501
-1.12392
-1.08392
-1.1501
-1.19108
-1.16491
-1.12392
-1.19108
-1.23306
-1.20688
-1.16491
-1.23306
-1.27602
-1.24985
-1.20688
-1.27602
-1.31997
-1.2938
-1.24985
-1.31997
-1.36491
-1.33873
-1.2938
-1.36491
-1.41083
-1.38466
-1.33873
-1.41083
-1.45775
-1.43157
-1.38466
-1.45775
-1.50565
-1.47947
-1.43157
-1.50565
-1.55453
-1.52836
-1.47947
-1.55453
-1.60441
-1.57824
-1.52836
-1.60441
-1.65527
-1.6291
-1.57824
-1.65527
-1.70712
-1.68095
-1.6291
-1.70712
-1.75996
-1.73379
-1.68095
-1.75996
-1.81379
-1.78762
-1.73379
-1.81379
-1.8686
-1.84243
-1.78762
-1.8686
-1.92441
-1.89823
-1.84243
-1.92441
-1.9812
-1.95502
-1.89823
-1.9812
-2.03897
-2.0128
-1.95502
-2.03897
-2.09774
-2.07156
-2.0128
-2.09774
-2.15749
-2.13132
-2.07156
-2.15749
-2.21823
-2.19206
-2.13132
-2.21823
-2.27996
-2.25378
-2.19206
-2.27996
-2.34267
-2.3165
-2.25378
-2.34267
-2.40638
-2.3802
-2.3165
-2.40638
-2.47107
-2.44489
-2.3802
-2.47107
-2.53675
-2.51057
-2.44489
-2.53675
-2.60341
-2.57724
-2.51057
-2.60341
-2.67106
-2.64489
-2.57724
-2.67106
-2.73971
-2.71353
-2.64489
-2.73971
-2.80933
-2.78316
-2.71353
-2.80933
-2.87995
-2.85378
-2.78316
-2.87995
-2.95156
-2.92538
-2.85378
-2.95156
-3.02415
-2.99797
-2.92538
-3.02415
-3.09773
-3.07155
-2.99797
-3.09773
-3.17229
-3.14612
-3.07155
-3.17229
-3.24785
-3.22168
-3.14612
-3.24785
-3.32439
-3.29822
-3.22168
-3.32439
-3.40192
-3.37575
-3.29822
-3.40192
-3.48044
-3.45427
-3.37575
-3.48044
-3.55995
-3.53377
-3.45427
-3.55995
-3.64044
-3.61427
-3.53377
-3.64044
-3.72192
-3.69575
-3.61427
-1.62917
-1.57831
-1.55312
-1.60399
-1.57831
-1.52843
-1.50324
-1.55312
-1.52843
-1.47954
-1.45435
-1.50324
-1.47954
-1.43164
-1.40645
-1.45435
-1.43164
-1.38472
-1.35954
-1.40645
-1.38472
-1.3388
-1.31361
-1.35954
-1.3388
-1.29386
-1.26867
-1.31361
-1.29386
-1.24991
-1.22472
-1.26867
-1.24991
-1.20694
-1.18176
-1.22472
-1.20694
-1.16497
-1.13978
-1.18176
-1.16497
-1.12398
-1.09879
-1.13978
-1.12398
-1.08398
-1.05879
-1.09879
-1.08398
-1.04496
-1.01978
-1.05879
-1.04496
-1.00694
-0.981754
-1.01978
-1.00694
-0.969901
-0.944716
-0.981754
-0.969901
-0.933851
-0.908666
-0.944716
-0.933851
-0.898789
-0.873604
-0.908666
-0.898789
-0.864714
-0.839529
-0.873604
-0.864714
-0.831627
-0.806442
-0.839529
-0.831627
-0.799528
-0.774342
-0.806442
-0.799528
-0.768416
-0.743231
-0.774342
-0.768416
-0.738292
-0.713107
-0.743231
-0.738292
-0.709155
-0.68397
-0.713107
-0.709155
-0.681006
-0.655821
-0.68397
-0.681006
-0.653845
-0.62866
-0.655821
-0.653845
-0.627672
-0.602487
-0.62866
-0.627672
-0.602486
-0.577301
-0.602487
-0.602486
-0.578288
-0.553103
-0.577301
-0.578288
-0.555077
-0.529892
-0.553103
-0.555077
-0.532854
-0.507669
-0.529892
-0.532854
-0.511619
-0.486434
-0.507669
-0.511619
-0.491371
-0.466186
-0.486434
-0.491371
-0.472112
-0.446926
-0.466186
-0.472112
-0.453839
-0.428654
-0.446926
-0.453839
-0.436555
-0.411369
-0.428654
-0.436555
-0.420258
-0.395072
-0.411369
-0.420258
-0.404948
-0.379763
-0.395072
-0.404948
-0.390627
-0.365442
-0.379763
-0.390627
-0.377293
-0.352108
-0.365442
-0.377293
-0.364946
-0.339761
-0.352108
-0.364946
-0.353588
-0.328402
-0.339761
-0.353588
-0.343217
-0.318031
-0.328402
-0.343217
-0.333833
-0.308648
-0.318031
-0.333833
-0.325437
-0.300252
-0.308648
-0.325437
-0.318029
-0.292844
-0.300252
-0.318029
-0.311609
-0.286424
-0.292844
-0.311609
-0.306176
-0.280991
-0.286424
-0.306176
-0.301731
-0.276546
-0.280991
-0.301731
-0.298274
-0.273088
-0.276546
-0.298274
-0.295804
-0.270619
-0.273088
-0.295804
-0.294322
-0.269136
-0.270619
-0.294322
-0.293827
-0.268642
-0.269136
-0.293827
-0.29432
-0.269135
-0.268642
-0.29432
-0.295801
-0.270616
-0.269135
-0.295801
-0.29827
-0.273084
-0.270616
-0.29827
-0.301726
-0.276541
-0.273084
-0.301726
-0.306169
-0.280984
-0.276541
-0.306169
-0.311601
-0.286416
-0.280984
-0.311601
-0.31802
-0.292835
-0.286416
-0.31802
-0.325427
-0.300242
-0.292835
-0.325427
-0.333821
-0.308636
-0.300242
-0.333821
-0.343203
-0.318018
-0.308636
-0.343203
-0.353573
-0.328388
-0.318018
-0.353573
-0.36493
-0.339745
-0.328388
-0.36493
-0.377275
-0.35209
-0.339745
-0.377275
-0.390608
-0.365423
-0.35209
-0.390608
-0.404928
-0.379743
-0.365423
-0.404928
-0.420236
-0.395051
-0.379743
-0.420236
-0.436532
-0.411347
-0.395051
-0.436532
-0.453815
-0.42863
-0.411347
-0.453815
-0.472086
-0.446901
-0.42863
-0.472086
-0.491345
-0.466159
-0.446901
-0.491345
-0.511591
-0.486406
-0.466159
-0.511591
-0.532825
-0.50764
-0.486406
-0.532825
-0.555046
-0.529861
-0.50764
-0.555046
-0.578255
-0.55307
-0.529861
-0.578255
-0.602452
-0.577267
-0.55307
-0.602452
-0.627637
-0.602452
-0.577267
-0.627637
-0.653809
-0.628624
-0.602452
-0.653809
-0.680969
-0.655784
-0.628624
-0.680969
-0.709116
-0.683931
-0.655784
-0.709116
-0.738251
-0.713066
-0.683931
-0.738251
-0.768374
-0.743189
-0.713066
-0.768374
-0.799485
-0.774299
-0.743189
-0.799485
-0.831583
-0.806398
-0.774299
-0.831583
-0.864669
-0.839483
-0.806398
-0.864669
-0.898742
-0.873557
-0.839483
-0.898742
-0.933803
-0.908618
-0.873557
-0.933803
-0.969852
-0.944666
-0.908618
-0.969852
-1.00689
-0.981703
-0.944666
-1.00689
-1.04491
-1.01973
-0.981703
-1.04491
-1.08392
-1.05874
-1.01973
-1.08392
-1.12392
-1.09874
-1.05874
-1.12392
-1.16491
-1.13972
-1.09874
-1.16491
-1.20688
-1.1817
-1.13972
-1.20688
-1.24985
-1.22466
-1.1817
-1.24985
-1.2938
-1.26861
-1.22466
-1.2938
-1.33873
-1.31355
-1.26861
-1.33873
-1.38466
-1.35947
-1.31355
-1.38466
-1.43157
-1.40639
-1.35947
-1.43157
-1.47947
-1.45429
-1.40639
-1.47947
-1.52836
-1.50318
-1.45429
-1.52836
-1.57824
-1.55305
-1.50318
-1.57824
-1.6291
-1.60392
-1.55305
-1.6291
-1.68095
-1.65577
-1.60392
-1.68095
-1.73379
-1.70861
-1.65577
-1.73379
-1.78762
-1.76243
-1.70861
-1.78762
-1.84243
-1.81725
-1.76243
-1.84243
-1.89823
-1.87305
-1.81725
-1.89823
-1.95502
-1.92984
-1.87305
-1.95502
-2.0128
-1.98761
-1.92984
-2.0128
-2.07156
-2.04638
-1.98761
-2.07156
-2.13132
-2.10613
-2.04638
-2.13132
-2.19206
-2.16687
-2.10613
-2.19206
-2.25378
-2.2286
-2.16687
-2.25378
-2.3165
-2.29132
-2.2286
-2.3165
-2.3802
-2.35502
-2.29132
-2.3802
-2.44489
-2.41971
-2.35502
-2.44489
-2.51057
-2.48539
-2.41971
-2.51057
-2.57724
-2.55205
-2.48539
-2.57724
-2.64489
-2.61971
-2.55205
-2.64489
-2.71353
-2.68835
-2.61971
-2.71353
-2.78316
-2.75798
-2.68835
-2.78316
-2.85378
-2.82859
-2.75798
-2.85378
-2.92538
-2.9002
-2.82859
-2.92538
-2.99797
-2.97279
-2.9002
-2.99797
-3.07155
-3.04637
-2.97279
-3.07155
-3.14612
-3.12094
-3.04637
-3.14612
-3.22168
-3.19649
-3.12094
-3.22168
-3.29822
-3.27303
-3.19649
-3.29822
-3.37575
-3.35056
-3.27303
-3.37575
-3.45427
-3.42908
-3.35056
-3.45427
-3.53377
-3.50859
-3.42908
-3.53377
-3.61427
-3.58908
-3.50859
-3.61427
-3.69575
-3.67056
-3.58908
-1.60399
-1.55312
-1.52892
-1.57979
-1.55312
-1.50324
-1.47905
-1.52892
-1.50324
-1.45435
-1.43016
-1.47905
-1.45435
-1.40645
-1.38225
-1.43016
-1.40645
-1.35954
-1.33534
-1.38225
-1.35954
-1.31361
-1.28941
-1.33534
-1.31361
-1.26867
-1.24447
-1.28941
-1.26867
-1.22472
-1.20052
-1.24447
-1.22472
-1.18176
-1.15756
-1.20052
-1.18176
-1.13978
-1.11558
-1.15756
-1.13978
-1.09879
-1.0746
-1.11558
-1.09879
-1.05879
-1.03459
-1.0746
-1.05879
-1.01978
-0.995582
-1.03459
-1.01978
-0.981754
-0.957556
-0.995582
-0.981754
-0.944716
-0.920519
-0.957556
-0.944716
-0.908666
-0.884469
-0.920519
-0.908666
-0.873604
-0.849406
-0.884469
-0.873604
-0.839529
-0.815331
-0.849406
-0.839529
-0.806442
-0.782244
-0.815331
-0.806442
-0.774342
-0.750145
-0.782244
-0.774342
-0.743231
-0.719033
-0.750145
-0.743231
-0.713107
-0.688909
-0.719033
-0.713107
-0.68397
-0.659773
-0.688909
-0.68397
-0.655821
-0.631624
-0.659773
-0.655821
-0.62866
-0.604463
-0.631624
-0.62866
-0.602487
-0.578289
-0.604463
-0.602487
-0.577301
-0.553103
-0.578289
-0.577301
-0.553103
-0.528905
-0.553103
-0.553103
-0.529892
-0.505694
-0.528905
-0.529892
-0.507669
-0.483472
-0.505694
-0.507669
-0.486434
-0.462236
-0.483472
-0.486434
-0.466186
-0.441989
-0.462236
-0.466186
-0.446926
-0.422729
-0.441989
-0.446926
-0.428654
-0.404457
-0.422729
-0.428654
-0.411369
-0.387172
-0.404457
-0.411369
-0.395072
-0.370875
-0.387172
-0.395072
-0.379763
-0.355566
-0.370875
-0.379763
-0.365442
-0.341244
-0.355566
-0.365442
-0.352108
-0.32791
-0.341244
-0.352108
-0.339761
-0.315564
-0.32791
-0.339761
-0.328402
-0.304205
-0.315564
-0.328402
-0.318031
-0.293834
-0.304205
-0.318031
-0.308648
-0.28445
-0.293834
-0.308648
-0.300252
-0.276055
-0.28445
-0.300252
-0.292844
-0.268647
-0.276055
-0.292844
-0.286424
-0.262226
-0.268647
-0.286424
-0.280991
-0.256793
-0.262226
-0.280991
-0.276546
-0.252348
-0.256793
-0.276546
-0.273088
-0.248891
-0.252348
-0.273088
-0.270619
-0.246421
-0.248891
-0.270619
-0.269136
-0.244939
-0.246421
-0.269136
-0.268642
-0.244444
-0.244939
-0.268642
-0.269135
-0.244938
-0.244444
-0.269135
-0.270616
-0.246418
-0.244938
-0.270616
-0.273084
-0.248887
-0.246418
-0.273084
-0.276541
-0.252343
-0.248887
-0.276541
-0.280984
-0.256787
-0.252343
-0.280984
-0.286416
-0.262218
-0.256787
-0.286416
-0.292835
-0.268637
-0.262218
-0.292835
-0.300242
-0.276044
-0.268637
-0.300242
-0.308636
-0.284438
-0.276044
-0.308636
-0.318018
-0.29382
-0.284438
-0.318018
-0.328388
-0.30419
-0.29382
-0.328388
-0.339745
-0.315547
-0.30419
-0.339745
-0.35209
-0.327892
-0.315547
-0.35209
-0.365423
-0.341225
-0.327892
-0.365423
-0.379743
-0.355545
-0.341225
-0.379743
-0.395051
-0.370853
-0.355545
-0.395051
-0.411347
-0.387149
-0.370853
-0.411347
-0.42863
-0.404432
-0.387149
-0.42863
-0.446901
-0.422703
-0.404432
-0.446901
-0.466159
-0.441962
-0.422703
-0.466159
-0.486406
-0.462208
-0.441962
-0.486406
-0.50764
-0.483442
-0.462208
-0.50764
-0.529861
-0.505664
-0.483442
-0.529861
-0.55307
-0.528873
-0.505664
-0.55307
-0.577267
-0.55307
-0.528873
-0.577267
-0.602452
-0.578254
-0.55307
-0.602452
-0.628624
-0.604426
-0.578254
-0.628624
-0.655784
-0.631586
-0.604426
-0.655784
-0.683931
-0.659734
-0.631586
-0.683931
-0.713066
-0.688869
-0.659734
-0.713066
-0.743189
-0.718992
-0.688869
-0.743189
-0.774299
-0.750102
-0.718992
-0.774299
-0.806398
-0.7822
-0.750102
-0.806398
-0.839483
-0.815286
-0.7822
-0.839483
-0.873557
-0.849359
-0.815286
-0.873557
-0.908618
-0.88442
-0.849359
-0.908618
-0.944666
-0.920469
-0.88442
-0.944666
-0.981703
-0.957505
-0.920469
-0.981703
-1.01973
-0.995529
-0.957505
-1.01973
-1.05874
-1.03454
-0.995529
-1.05874
-1.09874
-1.07454
-1.03454
-1.09874
-1.13972
-1.11553
-1.07454
-1.13972
-1.1817
-1.1575
-1.11553
-1.1817
-1.22466
-1.20046
-1.1575
-1.22466
-1.26861
-1.24441
-1.20046
-1.26861
-1.31355
-1.28935
-1.24441
-1.31355
-1.35947
-1.33528
-1.28935
-1.35947
-1.40639
-1.38219
-1.33528
-1.40639
-1.45429
-1.43009
-1.38219
-1.45429
-1.50318
-1.47898
-1.43009
-1.50318
-1.55305
-1.52885
-1.47898
-1.55305
-1.60392
-1.57972
-1.52885
-1.60392
-1.65577
-1.63157
-1.57972
-1.65577
-1.70861
-1.68441
-1.63157
-1.70861
-1.76243
-1.73823
-1.68441
-1.76243
-1.81725
-1.79305
-1.73823
-1.81725
-1.87305
-1.84885
-1.79305
-1.87305
-1.92984
-1.90564
-1.84885
-1.92984
-1.98761
-1.96342
-1.90564
-1.98761
-2.04638
-2.02218
-1.96342
-2.04638
-2.10613
-2.08193
-2.02218
-2.10613
-2.16687
-2.14267
-2.08193
-2.16687
-2.2286
-2.2044
-2.14267
-2.2286
-2.29132
-2.26712
-2.2044
-2.29132
-2.35502
-2.33082
-2.26712
-2.35502
-2.41971
-2.39551
-2.33082
-2.41971
-2.48539
-2.46119
-2.39551
-2.48539
-2.55205
-2.52786
-2.46119
-2.55205
-2.61971
-2.59551
-2.52786
-2.61971
-2.68835
-2.66415
-2.59551
-2.68835
-2.75798
-2.73378
-2.66415
-2.75798
-2.82859
-2.8044
-2.73378
-2.82859
-2.9002
-2.876
-2.8044
-2.9002
-2.97279
-2.94859
-2.876
-2.97279
-3.04637
-3.02217
-2.94859
-3.04637
-3.12094
-3.09674
-3.02217
-3.12094
-3.19649
-3.17229
-3.09674
-3.19649
-3.27303
-3.24884
-3.17229
-3.27303
-3.35056
-3.32637
-3.24884
-3.35056
-3.42908
-3.40488
-3.32637
-3.42908
-3.50859
-3.48439
-3.40488
-3.50859
-3.58908
-3.56488
-3.48439
-3.58908
-3.67056
-3.64636
-3.56488
-1.57979
-1.52892
-1.50571
-1.55658
-1.52892
-1.47905
-1.45584
-1.50571
-1.47905
-1.43016
-1.40695
-1.45584
-1.43016
-1.38225
-1.35904
-1.40695
-1.38225
-1.33534
-1.31213
-1.35904
-1.33534
-1.28941
-1.2662
-1.31213
-1.28941
-1.24447
-1.22126
-1.2662
-1.24447
-1.20052
-1.17731
-1.22126
-1.20052
-1.15756
-1.13435
-1.17731
-1.15756
-1.11558
-1.09237
-1.13435
-1.11558
-1.0746
-1.05139
-1.09237
-1.0746
-1.03459
-1.01138
-1.05139
-1.03459
-0.995582
-0.972372
-1.01138
-0.995582
-0.957556
-0.934347
-0.972372
-0.957556
-0.920519
-0.897309
-0.934347
-0.920519
-0.884469
-0.861259
-0.897309
-0.884469
-0.849406
-0.826196
-0.861259
-0.849406
-0.815331
-0.792122
-0.826196
-0.815331
-0.782244
-0.759035
-0.792122
-0.782244
-0.750145
-0.726935
-0.759035
-0.750145
-0.719033
-0.695823
-0.726935
-0.719033
-0.688909
-0.665699
-0.695823
-0.688909
-0.659773
-0.636563
-0.665699
-0.659773
-0.631624
-0.608414
-0.636563
-0.631624
-0.604463
-0.581253
-0.608414
-0.604463
-0.578289
-0.555079
-0.581253
-0.578289
-0.553103
-0.529893
-0.555079
-0.553103
-0.528905
-0.505695
-0.529893
-0.528905
-0.505694
-0.482485
-0.505695
-0.505694
-0.483472
-0.460262
-0.482485
-0.483472
-0.462236
-0.439026
-0.460262
-0.462236
-0.441989
-0.418779
-0.439026
-0.441989
-0.422729
-0.399519
-0.418779
-0.422729
-0.404457
-0.381247
-0.399519
-0.404457
-0.387172
-0.363962
-0.381247
-0.387172
-0.370875
-0.347665
-0.363962
-0.370875
-0.355566
-0.332356
-0.347665
-0.355566
-0.341244
-0.318034
-0.332356
-0.341244
-0.32791
-0.3047
-0.318034
-0.32791
-0.315564
-0.292354
-0.3047
-0.315564
-0.304205
-0.280995
-0.292354
-0.304205
-0.293834
-0.270624
-0.280995
-0.293834
-0.28445
-0.261241
-0.270624
-0.28445
-0.276055
-0.252845
-0.261241
-0.276055
-0.268647
-0.245437
-0.252845
-0.268647
-0.262226
-0.239016
-0.245437
-0.262226
-0.256793
-0.233584
-0.239016
-0.256793
-0.252348
-0.229138
-0.233584
-0.252348
-0.248891
-0.225681
-0.229138
-0.248891
-0.246421
-0.223211
-0.225681
-0.246421
-0.244939
-0.221729
-0.223211
-0.244939
-0.244444
-0.221235
-0.221729
-0.244444
-0.244938
-0.221728
-0.221235
-0.244938
-0.246418
-0.223209
-0.221728
-0.246418
-0.248887
-0.225677
-0.223209
-0.248887
-0.252343
-0.229133
-0.225677
-0.252343
-0.256787
-0.233577
-0.229133
-0.256787
-0.262218
-0.239008
-0.233577
-0.262218
-0.268637
-0.245427
-0.239008
-0.268637
-0.276044
-0.252834
-0.245427
-0.276044
-0.284438
-0.261229
-0.252834
-0.284438
-0.29382
-0.270611
-0.261229
-0.29382
-0.30419
-0.28098
-0.270611
-0.30419
-0.315547
-0.292338
-0.28098
-0.315547
-0.327892
-0.304683
-0.292338
-0.327892
-0.341225
-0.318015
-0.304683
-0.341225
-0.355545
-0.332336
-0.318015
-0.355545
-0.370853
-0.347644
-0.332336
-0.370853
-0.387149
-0.363939
-0.347644
-0.387149
-0.404432
-0.381222
-0.363939
-0.404432
-0.422703
-0.399493
-0.381222
-0.422703
-0.441962
-0.418752
-0.399493
-0.441962
-0.462208
-0.438998
-0.418752
-0.462208
-0.483442
-0.460232
-0.438998
-0.483442
-0.505664
-0.482454
-0.460232
-0.505664
-0.528873
-0.505663
-0.482454
-0.528873
-0.55307
-0.52986
-0.505663
-0.55307
-0.578254
-0.555044
-0.52986
-0.578254
-0.604426
-0.581216
-0.555044
-0.604426
-0.631586
-0.608376
-0.581216
-0.631586
-0.659734
-0.636524
-0.608376
-0.659734
-0.688869
-0.665659
-0.636524
-0.688869
-0.718992
-0.695782
-0.665659
-0.718992
-0.750102
-0.726892
-0.695782
-0.750102
-0.7822
-0.75899
-0.726892
-0.7822
-0.815286
-0.792076
-0.75899
-0.815286
-0.849359
-0.826149
-0.792076
-0.849359
-0.88442
-0.86121
-0.826149
-0.88442
-0.920469
-0.897259
-0.86121
-0.920469
-0.957505
-0.934295
-0.897259
-0.957505
-0.995529
-0.972319
-0.934295
-0.995529
-1.03454
-1.01133
-0.972319
-1.03454
-1.07454
-1.05133
-1.01133
-1.07454
-1.11553
-1.09232
-1.05133
-1.11553
-1.1575
-1.13429
-1.09232
-1.1575
-1.20046
-1.17725
-1.13429
-1.20046
-1.24441
-1.2212
-1.17725
-1.24441
-1.28935
-1.26614
-1.2212
-1.28935
-1.33528
-1.31207
-1.26614
-1.33528
-1.38219
-1.35898
-1.31207
-1.38219
-1.43009
-1.40688
-1.35898
-1.43009
-1.47898
-1.45577
-1.40688
-1.47898
-1.52885
-1.50564
-1.45577
-1.52885
-1.57972
-1.55651
-1.50564
-1.57972
-1.63157
-1.60836
-1.55651
-1.63157
-1.68441
-1.6612
-1.60836
-1.68441
-1.73823
-1.71502
-1.6612
-1.73823
-1.79305
-1.76984
-1.71502
-1.79305
-1.84885
-1.82564
-1.76984
-1.84885
-1.90564
-1.88243
-1.82564
-1.90564
-1.96342
-1.94021
-1.88243
-1.96342
-2.02218
-1.99897
-1.94021
-2.02218
-2.08193
-2.05872
-1.99897
-2.08193
-2.14267
-2.11946
-2.05872
-2.14267
-2.2044
-2.18119
-2.11946
-2.2044
-2.26712
-2.24391
-2.18119
-2.26712
-2.33082
-2.30761
-2.24391
-2.33082
-2.39551
-2.3723
-2.30761
-2.39551
-2.46119
-2.43798
-2.3723
-2.46119
-2.52786