# vtk DataFile Version 1.0
unstructured Grid
ASCII
DATASET UNSTRUCTURED_GRID
POINTS 23448 float 
0 0	 0.0
0.0222222 0	 0.0
0.0222222 0.0222222	 0.0
0 0.0222222	 0.0
0.0222222 0	 0.0
0.0444444 0	 0.0
0.0444444 0.0222222	 0.0
0.0222222 0.0222222	 0.0
0.0444444 0	 0.0
0.0666667 0	 0.0
0.0666667 0.0222222	 0.0
0.0444444 0.0222222	 0.0
0.0666667 0	 0.0
0.0888889 0	 0.0
0.0888889 0.0222222	 0.0
0.0666667 0.0222222	 0.0
0.0888889 0	 0.0
0.111111 0	 0.0
0.111111 0.0222222	 0.0
0.0888889 0.0222222	 0.0
0.111111 0	 0.0
0.133333 0	 0.0
0.133333 0.0222222	 0.0
0.111111 0.0222222	 0.0
0.133333 0	 0.0
0.155556 0	 0.0
0.155556 0.0222222	 0.0
0.133333 0.0222222	 0.0
0.155556 0	 0.0
0.177778 0	 0.0
0.177778 0.0222222	 0.0
0.155556 0.0222222	 0.0
0.177778 0	 0.0
0.2 0	 0.0
0.2 0.0222222	 0.0
0.177778 0.0222222	 0.0
0.2 0	 0.0
0.222222 0	 0.0
0.222222 0.0222222	 0.0
0.2 0.0222222	 0.0
0.222222 0	 0.0
0.244444 0	 0.0
0.244444 0.0222222	 0.0
0.222222 0.0222222	 0.0
0.244444 0	 0.0
0.266667 0	 0.0
0.266667 0.0222222	 0.0
0.244444 0.0222222	 0.0
0.266667 0	 0.0
0.288889 0	 0.0
0.288889 0.0222222	 0.0
0.266667 0.0222222	 0.0
0.288889 0	 0.0
0.311111 0	 0.0
0.311111 0.0222222	 0.0
0.288889 0.0222222	 0.0
0.311111 0	 0.0
0.333333 0	 0.0
0.333333 0.0222222	 0.0
0.311111 0.0222222	 0.0
0.333333 0	 0.0
0.355556 0	 0.0
0.355556 0.0222222	 0.0
0.333333 0.0222222	 0.0
0.355556 0	 0.0
0.377778 0	 0.0
0.377778 0.0222222	 0.0
0.355556 0.0222222	 0.0
0.377778 0	 0.0
0.4 0	 0.0
0.4 0.0222222	 0.0
0.377778 0.0222222	 0.0
0.4 0	 0.0
0.422222 0	 0.0
0.422222 0.0222222	 0.0
0.4 0.0222222	 0.0
0.422222 0	 0.0
0.444444 0	 0.0
0.444444 0.0222222	 0.0
0.422222 0.0222222	 0.0
0.444444 0	 0.0
0.466667 0	 0.0
0.466667 0.0222222	 0.0
0.444444 0.0222222	 0.0
0.466667 0	 0.0
0.488889 0	 0.0
0.488889 0.0222222	 0.0
0.466667 0.0222222	 0.0
0.488889 0	 0.0
0.511111 0	 0.0
0.511111 0.0222222	 0.0
0.488889 0.0222222	 0.0
0.511111 0	 0.0
0.533333 0	 0.0
0.533333 0.0222222	 0.0
0.511111 0.0222222	 0.0
0.533333 0	 0.0
0.555556 0	 0.0
0.555556 0.0222222	 0.0
0.533333 0.0222222	 0.0
0.555556 0	 0.0
0.577778 0	 0.0
0.577778 0.0222222	 0.0
0.555556 0.0222222	 0.0
0.577778 0	 0.0
0.6 0	 0.0
0.6 0.0222222	 0.0
0.577778 0.0222222	 0.0
0.6 0	 0.0
0.622222 0	 0.0
0.622222 0.0222222	 0.0
0.6 0.0222222	 0.0
0.622222 0	 0.0
0.644444 0	 0.0
0.644444 0.0222222	 0.0
0.622222 0.0222222	 0.0
0.644444 0	 0.0
0.666667 0	 0.0
0.666667 0.0222222	 0.0
0.644444 0.0222222	 0.0
0.666667 0	 0.0
0.688889 0	 0.0
0.688889 0.0222222	 0.0
0.666667 0.0222222	 0.0
0.688889 0	 0.0
0.711111 0	 0.0
0.711111 0.0222222	 0.0
0.688889 0.0222222	 0.0
0.711111 0	 0.0
0.733333 0	 0.0
0.733333 0.0222222	 0.0
0.711111 0.0222222	 0.0
0.733333 0	 0.0
0.755556 0	 0.0
0.755556 0.0222222	 0.0
0.733333 0.0222222	 0.0
0.755556 0	 0.0
0.777778 0	 0.0
0.777778 0.0222222	 0.0
0.755556 0.0222222	 0.0
0.777778 0	 0.0
0.8 0	 0.0
0.8 0.0222222	 0.0
0.777778 0.0222222	 0.0
0.8 0	 0.0
0.822222 0	 0.0
0.822222 0.0222222	 0.0
0.8 0.0222222	 0.0
0.822222 0	 0.0
0.844444 0	 0.0
0.844444 0.0222222	 0.0
0.822222 0.0222222	 0.0
0.844444 0	 0.0
0.866667 0	 0.0
0.866667 0.0222222	 0.0
0.844444 0.0222222	 0.0
0.866667 0	 0.0
0.888889 0	 0.0
0.888889 0.0222222	 0.0
0.866667 0.0222222	 0.0
0.888889 0	 0.0
0.911111 0	 0.0
0.911111 0.0222222	 0.0
0.888889 0.0222222	 0.0
0.911111 0	 0.0
0.933333 0	 0.0
0.933333 0.0222222	 0.0
0.911111 0.0222222	 0.0
0.933333 0	 0.0
0.955556 0	 0.0
0.955556 0.0222222	 0.0
0.933333 0.0222222	 0.0
0.955556 0	 0.0
0.977778 0	 0.0
0.977778 0.0222222	 0.0
0.955556 0.0222222	 0.0
0.977778 0	 0.0
1 0	 0.0
1 0.0222222	 0.0
0.977778 0.0222222	 0.0
1 0	 0.0
1.02222 0	 0.0
1.02222 0.0222222	 0.0
1 0.0222222	 0.0
1.02222 0	 0.0
1.04444 0	 0.0
1.04444 0.0222222	 0.0
1.02222 0.0222222	 0.0
1.04444 0	 0.0
1.06667 0	 0.0
1.06667 0.0222222	 0.0
1.04444 0.0222222	 0.0
1.06667 0	 0.0
1.08889 0	 0.0
1.08889 0.0222222	 0.0
1.06667 0.0222222	 0.0
1.08889 0	 0.0
1.11111 0	 0.0
1.11111 0.0222222	 0.0
1.08889 0.0222222	 0.0
1.11111 0	 0.0
1.13333 0	 0.0
1.13333 0.0222222	 0.0
1.11111 0.0222222	 0.0
1.13333 0	 0.0
1.15556 0	 0.0
1.15556 0.0222222	 0.0
1.13333 0.0222222	 0.0
1.15556 0	 0.0
1.17778 0	 0.0
1.17778 0.0222222	 0.0
1.15556 0.0222222	 0.0
1.17778 0	 0.0
1.2 0	 0.0
1.2 0.0222222	 0.0
1.17778 0.0222222	 0.0
1.2 0	 0.0
1.22222 0	 0.0
1.22222 0.0222222	 0.0
1.2 0.0222222	 0.0
1.22222 0	 0.0
1.24444 0	 0.0
1.24444 0.0222222	 0.0
1.22222 0.0222222	 0.0
1.24444 0	 0.0
1.26667 0	 0.0
1.26667 0.0222222	 0.0
1.24444 0.0222222	 0.0
1.26667 0	 0.0
1.28889 0	 0.0
1.28889 0.0222222	 0.0
1.26667 0.0222222	 0.0
1.28889 0	 0.0
1.31111 0	 0.0
1.31111 0.0222222	 0.0
1.28889 0.0222222	 0.0
1.31111 0	 0.0
1.33333 0	 0.0
1.33333 0.0222222	 0.0
1.31111 0.0222222	 0.0
1.33333 0	 0.0
1.35556 0	 0.0
1.35556 0.0222222	 0.0
1.33333 0.0222222	 0.0
1.35556 0	 0.0
1.37778 0	 0.0
1.37778 0.0222222	 0.0
1.35556 0.0222222	 0.0
1.37778 0	 0.0
1.4 0	 0.0
1.4 0.0222222	 0.0
1.37778 0.0222222	 0.0
1.4 0	 0.0
1.42222 0	 0.0
1.42222 0.0222222	 0.0
1.4 0.0222222	 0.0
1.42222 0	 0.0
1.44444 0	 0.0
1.44444 0.0222222	 0.0
1.42222 0.0222222	 0.0
1.44444 0	 0.0
1.46667 0	 0.0
1.46667 0.0222222	 0.0
1.44444 0.0222222	 0.0
1.46667 0	 0.0
1.48889 0	 0.0
1.48889 0.0222222	 0.0
1.46667 0.0222222	 0.0
1.48889 0	 0.0
1.51111 0	 0.0
1.51111 0.0222222	 0.0
1.48889 0.0222222	 0.0
1.51111 0	 0.0
1.53333 0	 0.0
1.53333 0.0222222	 0.0
1.51111 0.0222222	 0.0
1.53333 0	 0.0
1.55556 0	 0.0
1.55556 0.0222222	 0.0
1.53333 0.0222222	 0.0
1.55556 0	 0.0
1.57778 0	 0.0
1.57778 0.0222222	 0.0
1.55556 0.0222222	 0.0
1.57778 0	 0.0
1.6 0	 0.0
1.6 0.0222222	 0.0
1.57778 0.0222222	 0.0
1.6 0	 0.0
1.62222 0	 0.0
1.62222 0.0222222	 0.0
1.6 0.0222222	 0.0
1.62222 0	 0.0
1.64444 0	 0.0
1.64444 0.0222222	 0.0
1.62222 0.0222222	 0.0
1.64444 0	 0.0
1.66667 0	 0.0
1.66667 0.0222222	 0.0
1.64444 0.0222222	 0.0
1.66667 0	 0.0
1.68889 0	 0.0
1.68889 0.0222222	 0.0
1.66667 0.0222222	 0.0
1.68889 0	 0.0
1.71111 0	 0.0
1.71111 0.0222222	 0.0
1.68889 0.0222222	 0.0
1.71111 0	 0.0
1.73333 0	 0.0
1.73333 0.0222222	 0.0
1.71111 0.0222222	 0.0
1.73333 0	 0.0
1.75556 0	 0.0
1.75556 0.0222222	 0.0
1.73333 0.0222222	 0.0
1.75556 0	 0.0
1.77778 0	 0.0
1.77778 0.0222222	 0.0
1.75556 0.0222222	 0.0
1.77778 0	 0.0
1.8 0	 0.0
1.8 0.0222222	 0.0
1.77778 0.0222222	 0.0
1.8 0	 0.0
1.82222 0	 0.0
1.82222 0.0222222	 0.0
1.8 0.0222222	 0.0
1.82222 0	 0.0
1.84444 0	 0.0
1.84444 0.0222222	 0.0
1.82222 0.0222222	 0.0
1.84444 0	 0.0
1.86667 0	 0.0
1.86667 0.0222222	 0.0
1.84444 0.0222222	 0.0
1.86667 0	 0.0
1.88889 0	 0.0
1.88889 0.0222222	 0.0
1.86667 0.0222222	 0.0
1.88889 0	 0.0
1.91111 0	 0.0
1.91111 0.0222222	 0.0
1.88889 0.0222222	 0.0
1.91111 0	 0.0
1.93333 0	 0.0
1.93333 0.0222222	 0.0
1.91111 0.0222222	 0.0
1.93333 0	 0.0
1.95556 0	 0.0
1.95556 0.0222222	 0.0
1.93333 0.0222222	 0.0
1.95556 0	 0.0
1.97778 0	 0.0
1.97778 0.0222222	 0.0
1.95556 0.0222222	 0.0
1.97778 0	 0.0
2 0	 0.0
2 0.0222222	 0.0
1.97778 0.0222222	 0.0
2 0	 0.0
2.02222 0	 0.0
2.02222 0.0222222	 0.0
2 0.0222222	 0.0
2.02222 0	 0.0
2.04444 0	 0.0
2.04444 0.0222222	 0.0
2.02222 0.0222222	 0.0
2.04444 0	 0.0
2.06667 0	 0.0
2.06667 0.0222222	 0.0
2.04444 0.0222222	 0.0
2.06667 0	 0.0
2.08889 0	 0.0
2.08889 0.0222222	 0.0
2.06667 0.0222222	 0.0
2.08889 0	 0.0
2.11111 0	 0.0
2.11111 0.0222222	 0.0
2.08889 0.0222222	 0.0
2.11111 0	 0.0
2.13333 0	 0.0
2.13333 0.0222222	 0.0
2.11111 0.0222222	 0.0
2.13333 0	 0.0
2.15556 0	 0.0
2.15556 0.0222222	 0.0
2.13333 0.0222222	 0.0
2.15556 0	 0.0
2.17778 0	 0.0
2.17778 0.0222222	 0.0
2.15556 0.0222222	 0.0
2.17778 0	 0.0
2.2 0	 0.0
2.2 0.0222222	 0.0
2.17778 0.0222222	 0.0
2.2 0	 0.0
2.22222 0	 0.0
2.22222 0.0222222	 0.0
2.2 0.0222222	 0.0
2.22222 0	 0.0
2.24444 0	 0.0
2.24444 0.0222222	 0.0
2.22222 0.0222222	 0.0
2.24444 0	 0.0
2.26667 0	 0.0
2.26667 0.0222222	 0.0
2.24444 0.0222222	 0.0
2.26667 0	 0.0
2.28889 0	 0.0
2.28889 0.0222222	 0.0
2.26667 0.0222222	 0.0
2.28889 0	 0.0
2.31111 0	 0.0
2.31111 0.0222222	 0.0
2.28889 0.0222222	 0.0
2.31111 0	 0.0
2.33333 0	 0.0
2.33333 0.0222222	 0.0
2.31111 0.0222222	 0.0
2.33333 0	 0.0
2.35556 0	 0.0
2.35556 0.0222222	 0.0
2.33333 0.0222222	 0.0
2.35556 0	 0.0
2.37778 0	 0.0
2.37778 0.0222222	 0.0
2.35556 0.0222222	 0.0
2.37778 0	 0.0
2.4 0	 0.0
2.4 0.0222222	 0.0
2.37778 0.0222222	 0.0
2.4 0	 0.0
2.42222 0	 0.0
2.42222 0.0222222	 0.0
2.4 0.0222222	 0.0
2.42222 0	 0.0
2.44444 0	 0.0
2.44444 0.0222222	 0.0
2.42222 0.0222222	 0.0
2.44444 0	 0.0
2.46667 0	 0.0
2.46667 0.0222222	 0.0
2.44444 0.0222222	 0.0
2.46667 0	 0.0
2.48889 0	 0.0
2.48889 0.0222222	 0.0
2.46667 0.0222222	 0.0
2.48889 0	 0.0
2.51111 0	 0.0
2.51111 0.0222222	 0.0
2.48889 0.0222222	 0.0
2.51111 0	 0.0
2.53333 0	 0.0
2.53333 0.0222222	 0.0
2.51111 0.0222222	 0.0
2.53333 0	 0.0
2.55556 0	 0.0
2.55556 0.0222222	 0.0
2.53333 0.0222222	 0.0
2.55556 0	 0.0
2.57778 0	 0.0
2.57778 0.0222222	 0.0
2.55556 0.0222222	 0.0
2.57778 0	 0.0
2.6 0	 0.0
2.6 0.0222222	 0.0
2.57778 0.0222222	 0.0
2.6 0	 0.0
2.62222 0	 0.0
2.62222 0.0222222	 0.0
2.6 0.0222222	 0.0
2.62222 0	 0.0
2.64444 0	 0.0
2.64444 0.0222222	 0.0
2.62222 0.0222222	 0.0
2.64444 0	 0.0
2.66667 0	 0.0
2.66667 0.0222222	 0.0
2.64444 0.0222222	 0.0
2.66667 0	 0.0
2.68889 0	 0.0
2.68889 0.0222222	 0.0
2.66667 0.0222222	 0.0
2.68889 0	 0.0
2.71111 0	 0.0
2.71111 0.0222222	 0.0
2.68889 0.0222222	 0.0
2.71111 0	 0.0
2.73333 0	 0.0
2.73333 0.0222222	 0.0
2.71111 0.0222222	 0.0
2.73333 0	 0.0
2.75556 0	 0.0
2.75556 0.0222222	 0.0
2.73333 0.0222222	 0.0
2.75556 0	 0.0
2.77778 0	 0.0
2.77778 0.0222222	 0.0
2.75556 0.0222222	 0.0
2.77778 0	 0.0
2.8 0	 0.0
2.8 0.0222222	 0.0
2.77778 0.0222222	 0.0
2.8 0	 0.0
2.82222 0	 0.0
2.82222 0.0222222	 0.0
2.8 0.0222222	 0.0
2.82222 0	 0.0
2.84444 0	 0.0
2.84444 0.0222222	 0.0
2.82222 0.0222222	 0.0
2.84444 0	 0.0
2.86667 0	 0.0
2.86667 0.0222222	 0.0
2.84444 0.0222222	 0.0
2.86667 0	 0.0
2.88889 0	 0.0
2.88889 0.0222222	 0.0
2.86667 0.0222222	 0.0
2.88889 0	 0.0
2.91111 0	 0.0
2.91111 0.0222222	 0.0
2.88889 0.0222222	 0.0
2.91111 0	 0.0
[...]
POINT_DATA 23448
SCALARS levelset_first float
LOOKUP_TABLE default
-2.44706
-2.38273
-2.35656
-2.42089
-2.38273
-2.31939
-2.29322
-2.35656
-2.31939
-2.25704
-2.23087
-2.29322
-2.25704
-2.19568
-2.16951
-2.23087
-2.19568
-2.13531
-2.10913
-2.16951
-2.13531
-2.07592
-2.04975
-2.10913
-2.07592
-2.01752
-1.99135
-2.04975
-2.01752
-1.96011
-1.93393
-1.99135
-1.96011
-1.90368
-1.87751
-1.93393
-1.90368
-1.84824
-1.82207
-1.87751
-1.84824
-1.79379
-1.76762
-1.82207
-1.79379
-1.74033
-1.71416
-1.76762
-1.74033
-1.68786
-1.66169
-1.71416
-1.68786
-1.63637
-1.6102
-1.66169
-1.63637
-1.58587
-1.5597
-1.6102
-1.58587
-1.53636
-1.51019
-1.5597
-1.53636
-1.48784
-1.46167
-1.51019
-1.48784
-1.4403
-1.41413
-1.46167
-1.4403
-1.39376
-1.36758
-1.41413
-1.39376
-1.34819
-1.32202
-1.36758
-1.34819
-1.30362
-1.27745
-1.32202
-1.30362
-1.26004
-1.23386
-1.27745
-1.26004
-1.21744
-1.19127
-1.23386
-1.21744
-1.17583
-1.14966
-1.19127
-1.17583
-1.13521
-1.10903
-1.14966
-1.13521
-1.09557
-1.0694
-1.10903
-1.09557
-1.05693
-1.03075
-1.0694
-1.05693
-1.01927
-0.993094
-1.03075
-1.01927
-0.982595
-0.956422
-0.993094
-0.982595
-0.946911
-0.920738
-0.956422
-0.946911
-0.912215
-0.886042
-0.920738
-0.912215
-0.878506
-0.852333
-0.886042
-0.878506
-0.845785
-0.819612
-0.852333
-0.845785
-0.814052
-0.787879
-0.819612
-0.814052
-0.783306
-0.757134
-0.787879
-0.783306
-0.753548
-0.727376
-0.757134
-0.753548
-0.724778
-0.698605
-0.727376
-0.724778
-0.696995
-0.670822
-0.698605
-0.696995
-0.6702
-0.644027
-0.670822
-0.6702
-0.644393
-0.61822
-0.644027
-0.644393
-0.619573
-0.5934
-0.61822
-0.619573
-0.595741
-0.569568
-0.5934
-0.595741
-0.572897
-0.546724
-0.569568
-0.572897
-0.55104
-0.524867
-0.546724
-0.55104
-0.530171
-0.503998
-0.524867
-0.530171
-0.510289
-0.484117
-0.503998
-0.510289
-0.491396
-0.465223
-0.484117
-0.491396
-0.473489
-0.447317
-0.465223
-0.473489
-0.456571
-0.430398
-0.447317
-0.456571
-0.44064
-0.414467
-0.430398
-0.44064
-0.425697
-0.399524
-0.414467
-0.425697
-0.411741
-0.385569
-0.399524
-0.411741
-0.398773
-0.372601
-0.385569
-0.398773
-0.386793
-0.36062
-0.372601
-0.386793
-0.375801
-0.349628
-0.36062
-0.375801
-0.365796
-0.339623
-0.349628
-0.365796
-0.356779
-0.330606
-0.339623
-0.356779
-0.348749
-0.322576
-0.330606
-0.348749
-0.341707
-0.315534
-0.322576
-0.341707
-0.335653
-0.30948
-0.315534
-0.335653
-0.330586
-0.304413
-0.30948
-0.330586
-0.326507
-0.300334
-0.304413
-0.326507
-0.323416
-0.297243
-0.300334
-0.323416
-0.321312
-0.295139
-0.297243
-0.321312
-0.320196
-0.294023
-0.295139
-0.320196
-0.320068
-0.293895
-0.294023
-0.320068
-0.320927
-0.294754
-0.293895
-0.320927
-0.322774
-0.296601
-0.294754
-0.322774
-0.325608
-0.299436
-0.296601
-0.325608
-0.329431
-0.303258
-0.299436
-0.329431
-0.334241
-0.308068
-0.303258
-0.334241
-0.340038
-0.313865
-0.308068
-0.340038
-0.346823
-0.320651
-0.313865
-0.346823
-0.354596
-0.328423
-0.320651
-0.354596
-0.363357
-0.337184
-0.328423
-0.363357
-0.373105
-0.346932
-0.337184
-0.373105
-0.383841
-0.357668
-0.346932
-0.383841
-0.395564
-0.369391
-0.357668
-0.395564
-0.408275
-0.382103
-0.369391
-0.408275
-0.421974
-0.395801
-0.382103
-0.421974
-0.436661
-0.410488
-0.395801
-0.436661
-0.452335
-0.426162
-0.410488
-0.452335
-0.468996
-0.442824
-0.426162
-0.468996
-0.486646
-0.460473
-0.442824
-0.486646
-0.505283
-0.47911
-0.460473
-0.505283
-0.524908
-0.498735
-0.47911
-0.524908
-0.54552
-0.519347
-0.498735
-0.54552
-0.56712
-0.540947
-0.519347
-0.56712
-0.589708
-0.563535
-0.540947
-0.589708
-0.613283
-0.58711
-0.563535
-0.613283
-0.637846
-0.611673
-0.58711
-0.637846
-0.663397
-0.637224
-0.611673
-0.663397
-0.689935
-0.663762
-0.637224
-0.689935
-0.717461
-0.691288
-0.663762
-0.717461
-0.745974
-0.719802
-0.691288
-0.745974
-0.775476
-0.749303
-0.719802
-0.775476
-0.805965
-0.779792
-0.749303
-0.805965
-0.837441
-0.811268
-0.779792
-0.837441
-0.869905
-0.843733
-0.811268
-0.869905
-0.903357
-0.877184
-0.843733
-0.903357
-0.937797
-0.911624
-0.877184
-0.937797
-0.973224
-0.947051
-0.911624
-0.973224
-1.00964
-0.983466
-0.947051
-1.00964
-1.04704
-1.02087
-0.983466
-1.04704
-1.08543
-1.05926
-1.02087
-1.08543
-1.12481
-1.09864
-1.05926
-1.12481
-1.16517
-1.139
-1.09864
-1.16517
-1.20653
-1.18036
-1.139
-1.20653
-1.24887
-1.2227
-1.18036
-1.24887
-1.2922
-1.26602
-1.2227
-1.2922
-1.33651
-1.31034
-1.26602
-1.33651
-1.38182
-1.35564
-1.31034
-1.38182
-1.42811
-1.40194
-1.35564
-1.42811
-1.47539
-1.44921
-1.40194
-1.47539
-1.52365
-1.49748
-1.44921
-1.52365
-1.57291
-1.54674
-1.49748
-1.57291
-1.62315
-1.59698
-1.54674
-1.62315
-1.67438
-1.64821
-1.59698
-1.67438
-1.7266
-1.70042
-1.64821
-1.7266
-1.7798
-1.75363
-1.70042
-1.7798
-1.83399
-1.80782
-1.75363
-1.83399
-1.88918
-1.863
-1.80782
-1.88918
-1.94534
-1.91917
-1.863
-1.94534
-2.0025
-1.97633
-1.91917
-2.0025
-2.06064
-2.03447
-1.97633
-2.06064
-2.11977
-2.0936
-2.03447
-2.11977
-2.17989
-2.15372
-2.0936
-2.17989
-2.241
-2.21482
-2.15372
-2.241
-2.30309
-2.27692
-2.21482
-2.30309
-2.36617
-2.34
-2.27692
-2.36617
-2.43024
-2.40407
-2.34
-2.43024
-2.4953
-2.46913
-2.40407
-2.4953
-2.56134
-2.53517
-2.46913
-2.56134
-2.62838
-2.6022
-2.53517
-2.62838
-2.6964
-2.67022
-2.6022
-2.42089
-2.35656
-2.33137
-2.3957
-2.35656
-2.29322
-2.26804
-2.33137
-2.29322
-2.23087
-2.20569
-2.26804
-2.23087
-2.16951
-2.14432
-2.20569
-2.16951
-2.10913
-2.08395
-2.14432
-2.10913
-2.04975
-2.02456
-2.08395
-2.04975
-1.99135
-1.96616
-2.02456
-1.99135
-1.93393
-1.90875
-1.96616
-1.93393
-1.87751
-1.85232
-1.90875
-1.87751
-1.82207
-1.79689
-1.85232
-1.82207
-1.76762
-1.74244
-1.79689
-1.76762
-1.71416
-1.68897
-1.74244
-1.71416
-1.66169
-1.6365
-1.68897
-1.66169
-1.6102
-1.58501
-1.6365
-1.6102
-1.5597
-1.53452
-1.58501
-1.5597
-1.51019
-1.485
-1.53452
-1.51019
-1.46167
-1.43648
-1.485
-1.46167
-1.41413
-1.38895
-1.43648
-1.41413
-1.36758
-1.3424
-1.38895
-1.36758
-1.32202
-1.29684
-1.3424
-1.32202
-1.27745
-1.25226
-1.29684
-1.27745
-1.23386
-1.20868
-1.25226
-1.23386
-1.19127
-1.16608
-1.20868
-1.19127
-1.14966
-1.12447
-1.16608
-1.14966
-1.10903
-1.08385
-1.12447
-1.10903
-1.0694
-1.04421
-1.08385
-1.0694
-1.03075
-1.00557
-1.04421
-1.03075
-0.993094
-0.967909
-1.00557
-0.993094
-0.956422
-0.931237
-0.967909
-0.956422
-0.920738
-0.895553
-0.931237
-0.920738
-0.886042
-0.860857
-0.895553
-0.886042
-0.852333
-0.827148
-0.860857
-0.852333
-0.819612
-0.794427
-0.827148
-0.819612
-0.787879
-0.762694
-0.794427
-0.787879
-0.757134
-0.731948
-0.762694
-0.757134
-0.727376
-0.70219
-0.731948
-0.727376
-0.698605
-0.67342
-0.70219
-0.698605
-0.670822
-0.645637
-0.67342
-0.670822
-0.644027
-0.618842
-0.645637
-0.644027
-0.61822
-0.593035
-0.618842
-0.61822
-0.5934
-0.568215
-0.593035
-0.5934
-0.569568
-0.544383
-0.568215
-0.569568
-0.546724
-0.521539
-0.544383
-0.546724
-0.524867
-0.499682
-0.521539
-0.524867
-0.503998
-0.478813
-0.499682
-0.503998
-0.484117
-0.458931
-0.478813
-0.484117
-0.465223
-0.440038
-0.458931
-0.465223
-0.447317
-0.422131
-0.440038
-0.447317
-0.430398
-0.405213
-0.422131
-0.430398
-0.414467
-0.389282
-0.405213
-0.414467
-0.399524
-0.374339
-0.389282
-0.399524
-0.385569
-0.360383
-0.374339
-0.385569
-0.372601
-0.347415
-0.360383
-0.372601
-0.36062
-0.335435
-0.347415
-0.36062
-0.349628
-0.324443
-0.335435
-0.349628
-0.339623
-0.314438
-0.324443
-0.339623
-0.330606
-0.30542
-0.314438
-0.330606
-0.322576
-0.297391
-0.30542
-0.322576
-0.315534
-0.290349
-0.297391
-0.315534
-0.30948
-0.284295
-0.290349
-0.30948
-0.304413
-0.279228
-0.284295
-0.304413
-0.300334
-0.275149
-0.279228
-0.300334
-0.297243
-0.272058
-0.275149
-0.297243
-0.295139
-0.269954
-0.272058
-0.295139
-0.294023
-0.268838
-0.269954
-0.294023
-0.293895
-0.26871
-0.268838
-0.293895
-0.294754
-0.269569
-0.26871
-0.294754
-0.296601
-0.271416
-0.269569
-0.296601
-0.299436
-0.27425
-0.271416
-0.299436
-0.303258
-0.278073
-0.27425
-0.303258
-0.308068
-0.282883
-0.278073
-0.308068
-0.313865
-0.28868
-0.282883
-0.313865
-0.320651
-0.295465
-0.28868
-0.320651
-0.328423
-0.303238
-0.295465
-0.328423
-0.337184
-0.311999
-0.303238
-0.337184
-0.346932
-0.321747
-0.311999
-0.346932
-0.357668
-0.332483
-0.321747
-0.357668
-0.369391
-0.344206
-0.332483
-0.369391
-0.382103
-0.356917
-0.344206
-0.382103
-0.395801
-0.370616
-0.356917
-0.395801
-0.410488
-0.385303
-0.370616
-0.410488
-0.426162
-0.400977
-0.385303
-0.426162
-0.442824
-0.417638
-0.400977
-0.442824
-0.460473
-0.435288
-0.417638
-0.460473
-0.47911
-0.453925
-0.435288
-0.47911
-0.498735
-0.47355
-0.453925
-0.498735
-0.519347
-0.494162
-0.47355
-0.519347
-0.540947
-0.515762
-0.494162
-0.540947
-0.563535
-0.53835
-0.515762
-0.563535
-0.58711
-0.561925
-0.53835
-0.58711
-0.611673
-0.586488
-0.561925
-0.611673
-0.637224
-0.612039
-0.586488
-0.637224
-0.663762
-0.638577
-0.612039
-0.663762
-0.691288
-0.666103
-0.638577
-0.691288
-0.719802
-0.694616
-0.666103
-0.719802
-0.749303
-0.724118
-0.694616
-0.749303
-0.779792
-0.754607
-0.724118
-0.779792
-0.811268
-0.786083
-0.754607
-0.811268
-0.843733
-0.818547
-0.786083
-0.843733
-0.877184
-0.851999
-0.818547
-0.877184
-0.911624
-0.886439
-0.851999
-0.911624
-0.947051
-0.921866
-0.886439
-0.947051
-0.983466
-0.958281
-0.921866
-0.983466
-1.02087
-0.995683
-0.958281
-1.02087
-1.05926
-1.03407
-0.995683
-1.05926
-1.09864
-1.07345
-1.03407
-1.09864
-1.139
-1.11382
-1.07345
-1.139
-1.18036
-1.15517
-1.11382
-1.18036
-1.2227
-1.19751
-1.15517
-1.2227
-1.26602
-1.24084
-1.19751
-1.26602
-1.31034
-1.28516
-1.24084
-1.31034
-1.35564
-1.33046
-1.28516
-1.35564
-1.40194
-1.37675
-1.33046
-1.40194
-1.44921
-1.42403
-1.37675
-1.44921
-1.49748
-1.4723
-1.42403
-1.49748
-1.54674
-1.52155
-1.4723
-1.54674
-1.59698
-1.57179
-1.52155
-1.59698
-1.64821
-1.62302
-1.57179
-1.64821
-1.70042
-1.67524
-1.62302
-1.70042
-1.75363
-1.72844
-1.67524
-1.75363
-1.80782
-1.78264
-1.72844
-1.80782
-1.863
-1.83782
-1.78264
-1.863
-1.91917
-1.89399
-1.83782
-1.91917
-1.97633
-1.95114
-1.89399
-1.97633
-2.03447
-2.00928
-1.95114
-2.03447
-2.0936
-2.06841
-2.00928
-2.0936
-2.15372
-2.12853
-2.06841
-2.15372
-2.21482
-2.18964
-2.12853
-2.21482
-2.27692
-2.25173
-2.18964
-2.27692
-2.34
-2.31481
-2.25173
-2.34
-2.40407
-2.37888
-2.31481
-2.40407
-2.46913
-2.44394
-2.37888
-2.46913
-2.53517
-2.50999
-2.44394
-2.53517
-2.6022
-2.57702
-2.50999
-2.6022
-2.67022
-2.64504
-2.57702
-2.3957
-2.33137
-2.30718
-2.3715
-2.33137
-2.26804
-2.24384
-2.30718
-2.26804
-2.20569
-2.18149
-2.24384
-2.20569
-2.14432
-2.12013
-2.18149
-2.14432
-2.08395
-2.05975
-2.12013
-2.08395
-2.02456
-2.00036
-2.05975
-2.02456
-1.96616
-1.94196
-2.00036
-1.96616
-1.90875
-1.88455
-1.94196
-1.90875
-1.85232
-1.82813
-1.88455
-1.85232
-1.79689
-1.77269
-1.82813
-1.79689
-1.74244
-1.71824
-1.77269
-1.74244
-1.68897
-1.66478
-1.71824
-1.68897
-1.6365
-1.6123
-1.66478
-1.6365
-1.58501
-1.56082
-1.6123
-1.58501
-1.53452
-1.51032
-1.56082
-1.53452
-1.485
-1.46081
-1.51032
-1.485
-1.43648
-1.41228
-1.46081
-1.43648
-1.38895
-1.36475
-1.41228
-1.38895
-1.3424
-1.3182
-1.36475
-1.3424
-1.29684
-1.27264
-1.3182
-1.29684
-1.25226
-1.22807
-1.27264
-1.25226
-1.20868
-1.18448
-1.22807
-1.20868
-1.16608
-1.14188
-1.18448
-1.16608
-1.12447
-1.10027
-1.14188
-1.12447
-1.08385
-1.05965
-1.10027
-1.08385
-1.04421
-1.02002
-1.05965
-1.04421
-1.00557
-0.98137
-1.02002
-1.00557
-0.967909
-0.943711
-0.98137
-0.967909
-0.931237
-0.90704
-0.943711
-0.931237
-0.895553
-0.871356
-0.90704
-0.895553
-0.860857
-0.836659
-0.871356
-0.860857
-0.827148
-0.802951
-0.836659
-0.827148
-0.794427
-0.77023
-0.802951
-0.794427
-0.762694
-0.738496
-0.77023
-0.762694
-0.731948
-0.707751
-0.738496
-0.731948
-0.70219
-0.677993
-0.707751
-0.70219
-0.67342
-0.649222
-0.677993
-0.67342
-0.645637
-0.62144
-0.649222
-0.645637
-0.618842
-0.594645
-0.62144
-0.618842
-0.593035
-0.568837
-0.594645
-0.593035
-0.568215
-0.544018
-0.568837
-0.568215
-0.544383
-0.520186
-0.544018
-0.544383
-0.521539
-0.497341
-0.520186
-0.521539
-0.499682
-0.475484
-0.497341
-0.499682
-0.478813
-0.454615
-0.475484
-0.478813
-0.458931
-0.434734
-0.454615
-0.458931
-0.440038
-0.41584
-0.434734
-0.440038
-0.422131
-0.397934
-0.41584
-0.422131
-0.405213
-0.381015
-0.397934
-0.405213
-0.389282
-0.365085
-0.381015
-0.389282
-0.374339
-0.350141
-0.365085
-0.374339
-0.360383
-0.336186
-0.350141
-0.360383
-0.347415
-0.323218
-0.336186
-0.347415
-0.335435
-0.311238
-0.323218
-0.335435
-0.324443
-0.300245
-0.311238
-0.324443
-0.314438
-0.29024
-0.300245
-0.314438
-0.30542
-0.281223
-0.29024
-0.30542
-0.297391
-0.273193
-0.281223
-0.297391
-0.290349
-0.266151
-0.273193
-0.290349
-0.284295
-0.260097
-0.266151
-0.284295
-0.279228
-0.25503
-0.260097
-0.279228
-0.275149
-0.250951
-0.25503
-0.275149
-0.272058
-0.24786
-0.250951
-0.272058
-0.269954
-0.245756
-0.24786
-0.269954
-0.268838
-0.24464
-0.245756
-0.268838
-0.26871
-0.244512
-0.24464
-0.26871
-0.269569
-0.245371
-0.244512
-0.269569
-0.271416
-0.247218
-0.245371
-0.271416
-0.27425
-0.250053
-0.247218
-0.27425
-0.278073
-0.253875
-0.250053
-0.278073
-0.282883
-0.258685
-0.253875
-0.282883
-0.28868
-0.264483
-0.258685
-0.28868
-0.295465
-0.271268
-0.264483
-0.295465
-0.303238
-0.279041
-0.271268
-0.303238
-0.311999
-0.287801
-0.279041
-0.311999
-0.321747
-0.297549
-0.287801
-0.321747
-0.332483
-0.308285
-0.297549
-0.332483
-0.344206
-0.320009
-0.308285
-0.344206
-0.356917
-0.33272
-0.320009
-0.356917
-0.370616
-0.346419
-0.33272
-0.370616
-0.385303
-0.361105
-0.346419
-0.385303
-0.400977
-0.376779
-0.361105
-0.400977
-0.417638
-0.393441
-0.376779
-0.417638
-0.435288
-0.41109
-0.393441
-0.435288
-0.453925
-0.429727
-0.41109
-0.453925
-0.47355
-0.449352
-0.429727
-0.47355
-0.494162
-0.469964
-0.449352
-0.494162
-0.515762
-0.491564
-0.469964
-0.515762
-0.53835
-0.514152
-0.491564
-0.53835
-0.561925
-0.537727
-0.514152
-0.561925
-0.586488
-0.56229
-0.537727
-0.586488
-0.612039
-0.587841
-0.56229
-0.612039
-0.638577
-0.614379
-0.587841
-0.638577
-0.666103
-0.641905
-0.614379
-0.666103
-0.694616
-0.670419
-0.641905
-0.694616
-0.724118
-0.69992
-0.670419
-0.724118
-0.754607
-0.730409
-0.69992
-0.754607
-0.786083
-0.761886
-0.730409
-0.786083
-0.818547
-0.79435
-0.761886
-0.818547
-0.851999
-0.827802
-0.79435
-0.851999
-0.886439
-0.862241
-0.827802
-0.886439
-0.921866
-0.897668
-0.862241
-0.921866
-0.958281
-0.934083
-0.897668
-0.958281
-0.995683
-0.971486
-0.934083
-0.995683
-1.03407
-1.00988
-0.971486
-1.03407
-1.07345
-1.04925
-1.00988
-1.07345
-1.11382
-1.08962
-1.04925
-1.11382
-1.15517
-1.13097
-1.08962
-1.15517
-1.19751
-1.17331
-1.13097
-1.19751
-1.24084
-1.21664
-1.17331
-1.24084
-1.28516
-1.26096
-1.21664
-1.28516
-1.33046
-1.30626
-1.26096
-1.33046
-1.37675
-1.35255
-1.30626
-1.37675
-1.42403
-1.39983
-1.35255
-1.42403
-1.4723
-1.4481
-1.39983
-1.4723
-1.52155
-1.49735
-1.4481
-1.52155
-1.57179
-1.54759
-1.49735
-1.57179
-1.62302
-1.59882
-1.54759
-1.62302
-1.67524
-1.65104
-1.59882
-1.67524
-1.72844
-1.70425
-1.65104
-1.72844
-1.78264
-1.75844
-1.70425
-1.78264
-1.83782
-1.81362
-1.75844
-1.83782
-1.89399
-1.86979
-1.81362
-1.89399
-1.95114
-1.92694
-1.86979
-1.95114
-2.00928
-1.98509
-1.92694
-2.00928
-2.06841
-2.04422
-1.98509
-2.06841
-2.12853
-2.10434
-2.04422
-2.12853
-2.18964
-2.16544
-2.10434
-2.18964
-2.25173
-2.22754
-2.16544
-2.25173
-2.31481
-2.29062
-2.22754
-2.31481
-2.37888
-2.35469
-2.29062
-2.37888
-2.44394
-2.41974
-2.35469
-2.44394
-2.50999
-2.48579
-2.41974
-2.50999
-2.57702
-2.55282
-2.48579
-2.57702
-2.64504
-2.62084
-2.55282
-2.3715
-2.30718
-2.28397
-2.34829
-2.30718
-2.24384
-2.22063
-2.28397
-2.24384
-2.18149
-2.15828
-2.22063
-2.18149
-2.12013
-2.09692
-2.15828
-2.12013
-2.05975
-2.03654
-2.09692
-2.05975
-2.00036
-1.97715
-2.03654
-2.00036
-1.94196
-1.91875
-1.97715
-1.94196
-1.88455
-1.86134
-1.91875
-1.88455
-1.82813
-1.80492
-1.86134
-1.82813
-1.77269
-1.74948
-1.80492
-1.77269
-1.71824
-1.69503
-1.74948
-1.71824
-1.66478
-1.64157
-1.69503
-1.66478
-1.6123
-1.58909
-1.64157
-1.6123
-1.56082
-1.53761
-1.58909
-1.56082
-1.51032
-1.48711
-1.53761
-1.51032
-1.46081
-1.4376
-1.48711
-1.46081
-1.41228
-1.38907
-1.4376
-1.41228
-1.36475
-1.34154
-1.38907
-1.36475
-1.3182
-1.29499
-1.34154
-1.3182
-1.27264
-1.24943
-1.29499
-1.27264
-1.22807
-1.20486
-1.24943
-1.22807
-1.18448
-1.16127
-1.20486
-1.18448
-1.14188
-1.11867
-1.16127
-1.14188
-1.10027
-1.07706
-1.11867
-1.10027
-1.05965
-1.03644
-1.07706
-1.05965
-1.02002
-0.996807
-1.03644
-1.02002
-0.98137
-0.95816
-0.996807
-0.98137
-0.943711
-0.920501
-0.95816
-0.943711
-0.90704
-0.88383
-0.920501
-0.90704
-0.871356
-0.848146
-0.88383
-0.871356
-0.836659
-0.813449
-0.848146
-0.836659
-0.802951
-0.779741
-0.813449
-0.802951
-0.77023
-0.74702
-0.779741
-0.77023
-0.738496
-0.715287
-0.74702
-0.738496
-0.707751
-0.684541
-0.715287
-0.707751
-0.677993
-0.654783
-0.684541
-0.677993
-0.649222
-0.626013
-0.654783
-0.649222
-0.62144
-0.59823
-0.626013
-0.62144
-0.594645
-0.571435
-0.59823
-0.594645
-0.568837
-0.545627
-0.571435
-0.568837
-0.544018
-0.520808
-0.545627
-0.544018
-0.520186
-0.496976
-0.520808
-0.520186
-0.497341
-0.474131
-0.496976
-0.497341
-0.475484
-0.452274
-0.474131
-0.475484
-0.454615
-0.431405
-0.452274
-0.454615
-0.434734
-0.411524
-0.431405
-0.434734
-0.41584
-0.39263
-0.411524
-0.41584
-0.397934
-0.374724
-0.39263
-0.397934
-0.381015
-0.357805
-0.374724
-0.381015
-0.365085
-0.341875
-0.357805
-0.365085
-0.350141
-0.326931
-0.341875
-0.350141
-0.336186
-0.312976
-0.326931
-0.336186
-0.323218
-0.300008
-0.312976
-0.323218
-0.311238
-0.288028
-0.300008
-0.311238
-0.300245
-0.277035
-0.288028
-0.300245
-0.29024
-0.26703
-0.277035
-0.29024
-0.281223
-0.258013
-0.26703
-0.281223
-0.273193
-0.249983
-0.258013
-0.273193
-0.266151
-0.242942
-0.249983
-0.266151
-0.260097
-0.236887
-0.242942
-0.260097
-0.25503
-0.231821
-0.236887
-0.25503
-0.250951
-0.227742
-0.231821
-0.250951
-0.24786
-0.22465
-0.227742
-0.24786
-0.245756
-0.222547
-0.22465
-0.245756
-0.24464
-0.221431
-0.222547
-0.24464
-0.244512
-0.221302
-0.221431
-0.244512
-0.245371
-0.222161
-0.221302
-0.245371
-0.247218
-0.224008
-0.222161
-0.247218
-0.250053
-0.226843
-0.224008
-0.250053
-0.253875
-0.230665
-0.226843
-0.253875
-0.258685
-0.235475
-0.230665
-0.258685
-0.264483
-0.241273
-0.235475
-0.264483
-0.271268
-0.248058
-0.241273
-0.271268
-0.279041
-0.255831
-0.248058
-0.279041
-0.287801
-0.264591
-0.255831
-0.287801
-0.297549
-0.274339
-0.264591
-0.297549
-0.308285
-0.285075
-0.274339
-0.308285
-0.320009
-0.296799
-0.285075
-0.320009
-0.33272
-0.30951
-0.296799
-0.33272
-0.346419
-0.323209
-0.30951
-0.346419
-0.361105
-0.337895
-0.323209
-0.361105
-0.376779
-0.353569
-0.337895
-0.376779
-0.393441
-0.370231
-0.353569
-0.393441
-0.41109
-0.38788
-0.370231
-0.41109
-0.429727
-0.406517
-0.38788
-0.429727
-0.449352
-0.426142
-0.406517
-0.449352
-0.469964
-0.446755
-0.426142
-0.469964
-0.491564
-0.468355
-0.446755
-0.491564
-0.514152
-0.490942
-0.468355
-0.514152
-0.537727
-0.514518
-0.490942
-0.537727
-0.56229
-0.539081
-0.514518
-0.56229
-0.587841
-0.564631
-0.539081
-0.587841
-0.614379
-0.59117
-0.564631
-0.614379
-0.641905
-0.618695
-0.59117
-0.641905
-0.670419
-0.647209
-0.618695
-0.670419
-0.69992
-0.67671
-0.647209
-0.69992
-0.730409
-0.707199
-0.67671
-0.730409
-0.761886
-0.738676
-0.707199
-0.761886
-0.79435
-0.77114
-0.738676
-0.79435
-0.827802
-0.804592
-0.77114
-0.827802
-0.862241
-0.839031
-0.804592
-0.862241
-0.897668
-0.874459
-0.839031
-0.897668
-0.934083
-0.910873
-0.874459
-0.934083
-0.971486
-0.948276
-0.910873
-0.971486
-1.00988
-0.986666
-0.948276
-1.00988
-1.04925
-1.02604
-0.986666
-1.04925
-1.08962
-1.06641
-1.02604
-1.08962
-1.13097
-1.10776
-1.06641
-1.13097
-1.17331
-1.1501
-1.10776
-1.17331
-1.21664
-1.19343
-1.1501
-1.21664
-1.26096
-1.23775
-1.19343
-1.26096
-1.30626
-1.28305
-1.23775
-1.30626
-1.35255
-1.32934
-1.28305
-1.35255
-1.39983
-1.37662
-1.32934
-1.39983
-1.4481
-1.42489
-1.37662
-1.4481
-1.49735
-1.47414
-1.42489
-1.49735
-1.54759
-1.52438
-1.47414
-1.54759
-1.59882
-1.57561
-1.52438
-1.59882
-1.65104
-1.62783
-1.57561
-1.65104
-1.70425
-1.68104
-1.62783
-1.70425
-1.75844
-1.73523
-1.68104
-1.75844
-1.81362