# vtk DataFile Version 1.0
unstructured Grid
ASCII
DATASET UNSTRUCTURED_GRID
POINTS 23432 float 
0 0	 0.0
0.0222222 0	 0.0
0.0222222 0.0222222	 0.0
0 0.0222222	 0.0
0.0222222 0	 0.0
0.0444444 0	 0.0
0.0444444 0.0222222	 0.0
0.0222222 0.0222222	 0.0
0.0444444 0	 0.0
0.0666667 0	 0.0
0.0666667 0.0222222	 0.0
0.0444444 0.0222222	 0.0
0.0666667 0	 0.0
0.0888889 0	 0.0
0.0888889 0.0222222	 0.0
0.0666667 0.0222222	 0.0
0.0888889 0	 0.0
0.111111 0	 0.0
0.111111 0.0222222	 0.0
0.0888889 0.0222222	 0.0
0.111111 0	 0.0
0.133333 0	 0.0
0.133333 0.0222222	 0.0
0.111111 0.0222222	 0.0
0.133333 0	 0.0
0.155556 0	 0.0
0.155556 0.0222222	 0.0
0.133333 0.0222222	 0.0
0.155556 0	 0.0
0.177778 0	 0.0
0.177778 0.0222222	 0.0
0.155556 0.0222222	 0.0
0.177778 0	 0.0
0.2 0	 0.0
0.2 0.0222222	 0.0
0.177778 0.0222222	 0.0
0.2 0	 0.0
0.222222 0	 0.0
0.222222 0.0222222	 0.0
0.2 0.0222222	 0.0
0.222222 0	 0.0
0.244444 0	 0.0
0.244444 0.0222222	 0.0
0.222222 0.0222222	 0.0
0.244444 0	 0.0
0.266667 0	 0.0
0.266667 0.0222222	 0.0
0.244444 0.0222222	 0.0
0.266667 0	 0.0
0.288889 0	 0.0
0.288889 0.0222222	 0.0
0.266667 0.0222222	 0.0
0.288889 0	 0.0
0.311111 0	 0.0
0.311111 0.0222222	 0.0
0.288889 0.0222222	 0.0
0.311111 0	 0.0
0.333333 0	 0.0
0.333333 0.0222222	 0.0
0.311111 0.0222222	 0.0
0.333333 0	 0.0
0.355556 0	 0.0
0.355556 0.0222222	 0.0
0.333333 0.0222222	 0.0
0.355556 0	 0.0
0.377778 0	 0.0
0.377778 0.0222222	 0.0
0.355556 0.0222222	 0.0
0.377778 0	 0.0
0.4 0	 0.0
0.4 0.0222222	 0.0
0.377778 0.0222222	 0.0
0.4 0	 0.0
0.422222 0	 0.0
0.422222 0.0222222	 0.0
0.4 0.0222222	 0.0
0.422222 0	 0.0
0.444444 0	 0.0
0.444444 0.0222222	 0.0
0.422222 0.0222222	 0.0
0.444444 0	 0.0
0.466667 0	 0.0
0.466667 0.0222222	 0.0
0.444444 0.0222222	 0.0
0.466667 0	 0.0
0.488889 0	 0.0
0.488889 0.0222222	 0.0
0.466667 0.0222222	 0.0
0.488889 0	 0.0
0.511111 0	 0.0
0.511111 0.0222222	 0.0
0.488889 0.0222222	 0.0
0.511111 0	 0.0
0.533333 0	 0.0
0.533333 0.0222222	 0.0
0.511111 0.0222222	 0.0
0.533333 0	 0.0
0.555556 0	 0.0
0.555556 0.0222222	 0.0
0.533333 0.0222222	 0.0
0.555556 0	 0.0
0.577778 0	 0.0
0.577778 0.0222222	 0.0
0.555556 0.0222222	 0.0
0.577778 0	 0.0
0.6 0	 0.0
0.6 0.0222222	 0.0
0.577778 0.0222222	 0.0
0.6 0	 0.0
0.622222 0	 0.0
0.622222 0.0222222	 0.0
0.6 0.0222222	 0.0
0.622222 0	 0.0
0.644444 0	 0.0
0.644444 0.0222222	 0.0
0.622222 0.0222222	 0.0
0.644444 0	 0.0
0.666667 0	 0.0
0.666667 0.0222222	 0.0
0.644444 0.0222222	 0.0
0.666667 0	 0.0
0.688889 0	 0.0
0.688889 0.0222222	 0.0
0.666667 0.0222222	 0.0
0.688889 0	 0.0
0.711111 0	 0.0
0.711111 0.0222222	 0.0
0.688889 0.0222222	 0.0
0.711111 0	 0.0
0.733333 0	 0.0
0.733333 0.0222222	 0.0
0.711111 0.0222222	 0.0
0.733333 0	 0.0
0.755556 0	 0.0
0.755556 0.0222222	 0.0
0.733333 0.0222222	 0.0
0.755556 0	 0.0
0.777778 0	 0.0
0.777778 0.0222222	 0.0
0.755556 0.0222222	 0.0
0.777778 0	 0.0
0.8 0	 0.0
0.8 0.0222222	 0.0
0.777778 0.0222222	 0.0
0.8 0	 0.0
0.822222 0	 0.0
0.822222 0.0222222	 0.0
0.8 0.0222222	 0.0
0.822222 0	 0.0
0.844444 0	 0.0
0.844444 0.0222222	 0.0
0.822222 0.0222222	 0.0
0.844444 0	 0.0
0.866667 0	 0.0
0.866667 0.0222222	 0.0
0.844444 0.0222222	 0.0
0.866667 0	 0.0
0.888889 0	 0.0
0.888889 0.0222222	 0.0
0.866667 0.0222222	 0.0
0.888889 0	 0.0
0.911111 0	 0.0
0.911111 0.0222222	 0.0
0.888889 0.0222222	 0.0
0.911111 0	 0.0
0.933333 0	 0.0
0.933333 0.0222222	 0.0
0.911111 0.0222222	 0.0
0.933333 0	 0.0
0.955556 0	 0.0
0.955556 0.0222222	 0.0
0.933333 0.0222222	 0.0
0.955556 0	 0.0
0.977778 0	 0.0
0.977778 0.0222222	 0.0
0.955556 0.0222222	 0.0
0.977778 0	 0.0
1 0	 0.0
1 0.0222222	 0.0
0.977778 0.0222222	 0.0
1 0	 0.0
1.02222 0	 0.0
1.02222 0.0222222	 0.0
1 0.0222222	 0.0
1.02222 0	 0.0
1.04444 0	 0.0
1.04444 0.0222222	 0.0
1.02222 0.0222222	 0.0
1.04444 0	 0.0
1.06667 0	 0.0
1.06667 0.0222222	 0.0
1.04444 0.0222222	 0.0
1.06667 0	 0.0
1.08889 0	 0.0
1.08889 0.0222222	 0.0
1.06667 0.0222222	 0.0
1.08889 0	 0.0
1.11111 0	 0.0
1.11111 0.0222222	 0.0
1.08889 0.0222222	 0.0
1.11111 0	 0.0
1.13333 0	 0.0
1.13333 0.0222222	 0.0
1.11111 0.0222222	 0.0
1.13333 0	 0.0
1.15556 0	 0.0
1.15556 0.0222222	 0.0
1.13333 0.0222222	 0.0
1.15556 0	 0.0
1.17778 0	 0.0
1.17778 0.0222222	 0.0
1.15556 0.0222222	 0.0
1.17778 0	 0.0
1.2 0	 0.0
1.2 0.0222222	 0.0
1.17778 0.0222222	 0.0
1.2 0	 0.0
1.22222 0	 0.0
1.22222 0.0222222	 0.0
1.2 0.0222222	 0.0
1.22222 0	 0.0
1.24444 0	 0.0
1.24444 0.0222222	 0.0
1.22222 0.0222222	 0.0
1.24444 0	 0.0
1.26667 0	 0.0
1.26667 0.0222222	 0.0
1.24444 0.0222222	 0.0
1.26667 0	 0.0
1.28889 0	 0.0
1.28889 0.0222222	 0.0
1.26667 0.0222222	 0.0
1.28889 0	 0.0
1.31111 0	 0.0
1.31111 0.0222222	 0.0
1.28889 0.0222222	 0.0
1.31111 0	 0.0
1.33333 0	 0.0
1.33333 0.0222222	 0.0
1.31111 0.0222222	 0.0
1.33333 0	 0.0
1.35556 0	 0.0
1.35556 0.0222222	 0.0
1.33333 0.0222222	 0.0
1.35556 0	 0.0
1.37778 0	 0.0
1.37778 0.0222222	 0.0
1.35556 0.0222222	 0.0
1.37778 0	 0.0
1.4 0	 0.0
1.4 0.0222222	 0.0
1.37778 0.0222222	 0.0
1.4 0	 0.0
1.42222 0	 0.0
1.42222 0.0222222	 0.0
1.4 0.0222222	 0.0
1.42222 0	 0.0
1.44444 0	 0.0
1.44444 0.0222222	 0.0
1.42222 0.0222222	 0.0
1.44444 0	 0.0
1.46667 0	 0.0
1.46667 0.0222222	 0.0
1.44444 0.0222222	 0.0
1.46667 0	 0.0
1.48889 0	 0.0
1.48889 0.0222222	 0.0
1.46667 0.0222222	 0.0
1.48889 0	 0.0
1.51111 0	 0.0
1.51111 0.0222222	 0.0
1.48889 0.0222222	 0.0
1.51111 0	 0.0
1.53333 0	 0.0
1.53333 0.0222222	 0.0
1.51111 0.0222222	 0.0
1.53333 0	 0.0
1.55556 0	 0.0
1.55556 0.0222222	 0.0
1.53333 0.0222222	 0.0
1.55556 0	 0.0
1.57778 0	 0.0
1.57778 0.0222222	 0.0
1.55556 0.0222222	 0.0
1.57778 0	 0.0
1.6 0	 0.0
1.6 0.0222222	 0.0
1.57778 0.0222222	 0.0
1.6 0	 0.0
1.62222 0	 0.0
1.62222 0.0222222	 0.0
1.6 0.0222222	 0.0
1.62222 0	 0.0
1.64444 0	 0.0
1.64444 0.0222222	 0.0
1.62222 0.0222222	 0.0
1.64444 0	 0.0
1.66667 0	 0.0
1.66667 0.0222222	 0.0
1.64444 0.0222222	 0.0
1.66667 0	 0.0
1.68889 0	 0.0
1.68889 0.0222222	 0.0
1.66667 0.0222222	 0.0
1.68889 0	 0.0
1.71111 0	 0.0
1.71111 0.0222222	 0.0
1.68889 0.0222222	 0.0
1.71111 0	 0.0
1.73333 0	 0.0
1.73333 0.0222222	 0.0
1.71111 0.0222222	 0.0
1.73333 0	 0.0
1.75556 0	 0.0
1.75556 0.0222222	 0.0
1.73333 0.0222222	 0.0
1.75556 0	 0.0
1.77778 0	 0.0
1.77778 0.0222222	 0.0
1.75556 0.0222222	 0.0
1.77778 0	 0.0
1.8 0	 0.0
1.8 0.0222222	 0.0
1.77778 0.0222222	 0.0
1.8 0	 0.0
1.82222 0	 0.0
1.82222 0.0222222	 0.0
1.8 0.0222222	 0.0
1.82222 0	 0.0
1.84444 0	 0.0
1.84444 0.0222222	 0.0
1.82222 0.0222222	 0.0
1.84444 0	 0.0
1.86667 0	 0.0
1.86667 0.0222222	 0.0
1.84444 0.0222222	 0.0
1.86667 0	 0.0
1.88889 0	 0.0
1.88889 0.0222222	 0.0
1.86667 0.0222222	 0.0
1.88889 0	 0.0
1.91111 0	 0.0
1.91111 0.0222222	 0.0
1.88889 0.0222222	 0.0
1.91111 0	 0.0
1.93333 0	 0.0
1.93333 0.0222222	 0.0
1.91111 0.0222222	 0.0
1.93333 0	 0.0
1.95556 0	 0.0
1.95556 0.0222222	 0.0
1.93333 0.0222222	 0.0
1.95556 0	 0.0
1.97778 0	 0.0
1.97778 0.0222222	 0.0
1.95556 0.0222222	 0.0
1.97778 0	 0.0
2 0	 0.0
2 0.0222222	 0.0
1.97778 0.0222222	 0.0
2 0	 0.0
2.02222 0	 0.0
2.02222 0.0222222	 0.0
2 0.0222222	 0.0
2.02222 0	 0.0
2.04444 0	 0.0
2.04444 0.0222222	 0.0
2.02222 0.0222222	 0.0
2.04444 0	 0.0
2.06667 0	 0.0
2.06667 0.0222222	 0.0
2.04444 0.0222222	 0.0
2.06667 0	 0.0
2.08889 0	 0.0
2.08889 0.0222222	 0.0
2.06667 0.0222222	 0.0
2.08889 0	 0.0
2.11111 0	 0.0
2.11111 0.0222222	 0.0
2.08889 0.0222222	 0.0
2.11111 0	 0.0
2.13333 0	 0.0
2.13333 0.0222222	 0.0
2.11111 0.0222222	 0.0
2.13333 0	 0.0
2.15556 0	 0.0
2.15556 0.0222222	 0.0
2.13333 0.0222222	 0.0
2.15556 0	 0.0
2.17778 0	 0.0
2.17778 0.0222222	 0.0
2.15556 0.0222222	 0.0
2.17778 0	 0.0
2.2 0	 0.0
2.2 0.0222222	 0.0
2.17778 0.0222222	 0.0
2.2 0	 0.0
2.22222 0	 0.0
2.22222 0.0222222	 0.0
2.2 0.0222222	 0.0
2.22222 0	 0.0
2.24444 0	 0.0
2.24444 0.0222222	 0.0
2.22222 0.0222222	 0.0
2.24444 0	 0.0
2.26667 0	 0.0
2.26667 0.0222222	 0.0
2.24444 0.0222222	 0.0
2.26667 0	 0.0
2.28889 0	 0.0
2.28889 0.0222222	 0.0
2.26667 0.0222222	 0.0
2.28889 0	 0.0
2.31111 0	 0.0
2.31111 0.0222222	 0.0
2.28889 0.0222222	 0.0
2.31111 0	 0.0
2.33333 0	 0.0
2.33333 0.0222222	 0.0
2.31111 0.0222222	 0.0
2.33333 0	 0.0
2.35556 0	 0.0
2.35556 0.0222222	 0.0
2.33333 0.0222222	 0.0
2.35556 0	 0.0
2.37778 0	 0.0
2.37778 0.0222222	 0.0
2.35556 0.0222222	 0.0
2.37778 0	 0.0
2.4 0	 0.0
2.4 0.0222222	 0.0
2.37778 0.0222222	 0.0
2.4 0	 0.0
2.42222 0	 0.0
2.42222 0.0222222	 0.0
2.4 0.0222222	 0.0
2.42222 0	 0.0
2.44444 0	 0.0
2.44444 0.0222222	 0.0
2.42222 0.0222222	 0.0
2.44444 0	 0.0
2.46667 0	 0.0
2.46667 0.0222222	 0.0
2.44444 0.0222222	 0.0
2.46667 0	 0.0
2.48889 0	 0.0
2.48889 0.0222222	 0.0
2.46667 0.0222222	 0.0
2.48889 0	 0.0
2.51111 0	 0.0
2.51111 0.0222222	 0.0
2.48889 0.0222222	 0.0
2.51111 0	 0.0
2.53333 0	 0.0
2.53333 0.0222222	 0.0
2.51111 0.0222222	 0.0
2.53333 0	 0.0
2.55556 0	 0.0
2.55556 0.0222222	 0.0
2.53333 0.0222222	 0.0
2.55556 0	 0.0
2.57778 0	 0.0
2.57778 0.0222222	 0.0
2.55556 0.0222222	 0.0
2.57778 0	 0.0
2.6 0	 0.0
2.6 0.0222222	 0.0
2.57778 0.0222222	 0.0
2.6 0	 0.0
2.62222 0	 0.0
2.62222 0.0222222	 0.0
2.6 0.0222222	 0.0
2.62222 0	 0.0
2.64444 0	 0.0
2.64444 0.0222222	 0.0
2.62222 0.0222222	 0.0
2.64444 0	 0.0
2.66667 0	 0.0
2.66667 0.0222222	 0.0
2.64444 0.0222222	 0.0
2.66667 0	 0.0
2.68889 0	 0.0
2.68889 0.0222222	 0.0
2.66667 0.0222222	 0.0
2.68889 0	 0.0
2.71111 0	 0.0
2.71111 0.0222222	 0.0
2.68889 0.0222222	 0.0
2.71111 0	 0.0
2.73333 0	 0.0
2.73333 0.0222222	 0.0
2.71111 0.0222222	 0.0
2.73333 0	 0.0
2.75556 0	 0.0
2.75556 0.0222222	 0.0
2.73333 0.0222222	 0.0
2.75556 0	 0.0
2.77778 0	 0.0
2.77778 0.0222222	 0.0
2.75556 0.0222222	 0.0
2.77778 0	 0.0
2.8 0	 0.0
2.8 0.0222222	 0.0
2.77778 0.0222222	 0.0
2.8 0	 0.0
2.82222 0	 0.0
2.82222 0.0222222	 0.0
2.8 0.0222222	 0.0
2.82222 0	 0.0
2.84444 0	 0.0
2.84444 0.0222222	 0.0
2.82222 0.0222222	 0.0
2.84444 0	 0.0
2.86667 0	 0.0
2.86667 0.0222222	 0.0
2.84444 0.0222222	 0.0
2.86667 0	 0.0
2.88889 0	 0.0
2.88889 0.0222222	 0.0
2.86667 0.0222222	 0.0
2.88889 0	 0.0
2.91111 0	 0.0
2.91111 0.0222222	 0.0
2.88889 0.0222222	 0.0
2.91111 0	 0.0
[...]
POINT_DATA 23432
SCALARS levelset_first float
LOOKUP_TABLE default
-2.70702
-2.63885
-2.61268
-2.68085
-2.63885
-2.57167
-2.54549
-2.61268
-2.57167
-2.50547
-2.4793
-2.54549
-2.50547
-2.44026
-2.41409
-2.4793
-2.44026
-2.37604
-2.34986
-2.41409
-2.37604
-2.3128
-2.28663
-2.34986
-2.3128
-2.25056
-2.22438
-2.28663
-2.25056
-2.1893
-2.16312
-2.22438
-2.1893
-2.12902
-2.10285
-2.16312
-2.12902
-2.06974
-2.04357
-2.10285
-2.06974
-2.01144
-1.98527
-2.04357
-2.01144
-1.95414
-1.92796
-1.98527
-1.95414
-1.89782
-1.87164
-1.92796
-1.89782
-1.84248
-1.81631
-1.87164
-1.84248
-1.78814
-1.76196
-1.81631
-1.78814
-1.73478
-1.70861
-1.76196
-1.73478
-1.68241
-1.65623
-1.70861
-1.68241
-1.63103
-1.60485
-1.65623
-1.63103
-1.58063
-1.55446
-1.60485
-1.58063
-1.53122
-1.50505
-1.55446
-1.53122
-1.4828
-1.45663
-1.50505
-1.4828
-1.43537
-1.4092
-1.45663
-1.43537
-1.38893
-1.36275
-1.4092
-1.38893
-1.34347
-1.3173
-1.36275
-1.34347
-1.299
-1.27283
-1.3173
-1.299
-1.25552
-1.22935
-1.27283
-1.25552
-1.21303
-1.18685
-1.22935
-1.21303
-1.17152
-1.14535
-1.18685
-1.17152
-1.131
-1.10483
-1.14535
-1.131
-1.09147
-1.0653
-1.10483
-1.09147
-1.05293
-1.02675
-1.0653
-1.05293
-1.01537
-0.989198
-1.02675
-1.01537
-0.978803
-0.95263
-0.989198
-0.978803
-0.943223
-0.91705
-0.95263
-0.943223
-0.90863
-0.882457
-0.91705
-0.90863
-0.875025
-0.848852
-0.882457
-0.875025
-0.842408
-0.816235
-0.848852
-0.842408
-0.810778
-0.784605
-0.816235
-0.810778
-0.780136
-0.753963
-0.784605
-0.780136
-0.750482
-0.724309
-0.753963
-0.750482
-0.721815
-0.695642
-0.724309
-0.721815
-0.694136
-0.667963
-0.695642
-0.694136
-0.667445
-0.641272
-0.667963
-0.667445
-0.641741
-0.615568
-0.641272
-0.641741
-0.617025
-0.590852
-0.615568
-0.617025
-0.593297
-0.567124
-0.590852
-0.593297
-0.570556
-0.544383
-0.567124
-0.570556
-0.548803
-0.52263
-0.544383
-0.548803
-0.528037
-0.501865
-0.52263
-0.528037
-0.50826
-0.482087
-0.501865
-0.50826
-0.489469
-0.463297
-0.482087
-0.489469
-0.471667
-0.445494
-0.463297
-0.471667
-0.454852
-0.428679
-0.445494
-0.454852
-0.439025
-0.412852
-0.428679
-0.439025
-0.424185
-0.398013
-0.412852
-0.424185
-0.410334
-0.384161
-0.398013
-0.410334
-0.397469
-0.371297
-0.384161
-0.397469
-0.385593
-0.35942
-0.371297
-0.385593
-0.374704
-0.348531
-0.35942
-0.374704
-0.364803
-0.33863
-0.348531
-0.364803
-0.355889
-0.329716
-0.33863
-0.355889
-0.347963
-0.32179
-0.329716
-0.347963
-0.341025
-0.314852
-0.32179
-0.341025
-0.335074
-0.308902
-0.314852
-0.335074
-0.330111
-0.303939
-0.308902
-0.330111
-0.326136
-0.299963
-0.303939
-0.326136
-0.323148
-0.296976
-0.299963
-0.323148
-0.321148
-0.294976
-0.296976
-0.321148
-0.320136
-0.293963
-0.294976
-0.320136
-0.320111
-0.293939
-0.293963
-0.320111
-0.321074
-0.294902
-0.293939
-0.321074
-0.323025
-0.296852
-0.294902
-0.323025
-0.325963
-0.29979
-0.296852
-0.325963
-0.329889
-0.303716
-0.29979
-0.329889
-0.334803
-0.30863
-0.303716
-0.334803
-0.340704
-0.314531
-0.30863
-0.340704
-0.347593
-0.32142
-0.314531
-0.347593
-0.355469
-0.329297
-0.32142
-0.355469
-0.364334
-0.338161
-0.329297
-0.364334
-0.374185
-0.348013
-0.338161
-0.374185
-0.385025
-0.358852
-0.348013
-0.385025
-0.396852
-0.370679
-0.358852
-0.396852
-0.409667
-0.383494
-0.370679
-0.409667
-0.423469
-0.397297
-0.383494
-0.423469
-0.43826
-0.412087
-0.397297
-0.43826
-0.454037
-0.427865
-0.412087
-0.454037
-0.470803
-0.44463
-0.427865
-0.470803
-0.488556
-0.462383
-0.44463
-0.488556
-0.507297
-0.481124
-0.462383
-0.507297
-0.527025
-0.500852
-0.481124
-0.527025
-0.547741
-0.521568
-0.500852
-0.547741
-0.569445
-0.543272
-0.521568
-0.569445
-0.592136
-0.565963
-0.543272
-0.592136
-0.615815
-0.589642
-0.565963
-0.615815
-0.640482
-0.614309
-0.589642
-0.640482
-0.666136
-0.639963
-0.614309
-0.666136
-0.692778
-0.666605
-0.639963
-0.692778
-0.720408
-0.694235
-0.666605
-0.720408
-0.749025
-0.722852
-0.694235
-0.749025
-0.77863
-0.752457
-0.722852
-0.77863
-0.809223
-0.78305
-0.752457
-0.809223
-0.840803
-0.81463
-0.78305
-0.840803
-0.873371
-0.847198
-0.81463
-0.873371
-0.906926
-0.880753
-0.847198
-0.906926
-0.941469
-0.915297
-0.880753
-0.941469
-0.977
-0.950827
-0.915297
-0.977
-1.01352
-0.987346
-0.950827
-1.01352
-1.05102
-1.02485
-0.987346
-1.05102
-1.08952
-1.06335
-1.02485
-1.08952
-1.129
-1.10283
-1.06335
-1.129
-1.16947
-1.1433
-1.10283
-1.16947
-1.21093
-1.18475
-1.1433
-1.21093
-1.25337
-1.2272
-1.18475
-1.25337
-1.2968
-1.27063
-1.2272
-1.2968
-1.34122
-1.31505
-1.27063
-1.34122
-1.38663
-1.36046
-1.31505
-1.38663
-1.43303
-1.40685
-1.36046
-1.43303
-1.48041
-1.45423
-1.40685
-1.48041
-1.52878
-1.50261
-1.45423
-1.52878
-1.57814
-1.55196
-1.50261
-1.57814
-1.62848
-1.60231
-1.55196
-1.62848
-1.67982
-1.65364
-1.60231
-1.67982
-1.73214
-1.70596
-1.65364
-1.73214
-1.78544
-1.75927
-1.70596
-1.78544
-1.83974
-1.81357
-1.75927
-1.83974
-1.89503
-1.86885
-1.81357
-1.89503
-1.9513
-1.92512
-1.86885
-1.9513
-2.00856
-1.98238
-1.92512
-2.00856
-2.0668
-2.04063
-1.98238
-2.0668
-2.12604
-2.09986
-2.04063
-2.12604
-2.18626
-2.16009
-2.09986
-2.18626
-2.24747
-2.2213
-2.16009
-2.24747
-2.30967
-2.28349
-2.2213
-2.30967
-2.37285
-2.34668
-2.28349
-2.37285
-2.43703
-2.41085
-2.34668
-2.68085
-2.61268
-2.58749
-2.65567
-2.61268
-2.54549
-2.52031
-2.58749
-2.54549
-2.4793
-2.45411
-2.52031
-2.4793
-2.41409
-2.3889
-2.45411
-2.41409
-2.34986
-2.32468
-2.3889
-2.34986
-2.28663
-2.26144
-2.32468
-2.28663
-2.22438
-2.1992
-2.26144
-2.22438
-2.16312
-2.13794
-2.1992
-2.16312
-2.10285
-2.07767
-2.13794
-2.10285
-2.04357
-2.01838
-2.07767
-2.04357
-1.98527
-1.96009
-2.01838
-1.98527
-1.92796
-1.90278
-1.96009
-1.92796
-1.87164
-1.84646
-1.90278
-1.87164
-1.81631
-1.79112
-1.84646
-1.81631
-1.76196
-1.73678
-1.79112
-1.76196
-1.70861
-1.68342
-1.73678
-1.70861
-1.65623
-1.63105
-1.68342
-1.65623
-1.60485
-1.57967
-1.63105
-1.60485
-1.55446
-1.52927
-1.57967
-1.55446
-1.50505
-1.47986
-1.52927
-1.50505
-1.45663
-1.43144
-1.47986
-1.45663
-1.4092
-1.38401
-1.43144
-1.4092
-1.36275
-1.33757
-1.38401
-1.36275
-1.3173
-1.29211
-1.33757
-1.3173
-1.27283
-1.24764
-1.29211
-1.27283
-1.22935
-1.20416
-1.24764
-1.22935
-1.18685
-1.16167
-1.20416
-1.18685
-1.14535
-1.12016
-1.16167
-1.14535
-1.10483
-1.07964
-1.12016
-1.10483
-1.0653
-1.04011
-1.07964
-1.0653
-1.02675
-1.00157
-1.04011
-1.02675
-0.989198
-0.964013
-1.00157
-0.989198
-0.95263
-0.927445
-0.964013
-0.95263
-0.91705
-0.891865
-0.927445
-0.91705
-0.882457
-0.857272
-0.891865
-0.882457
-0.848852
-0.823667
-0.857272
-0.848852
-0.816235
-0.79105
-0.823667
-0.816235
-0.784605
-0.75942
-0.79105
-0.784605
-0.753963
-0.728778
-0.75942
-0.753963
-0.724309
-0.699124
-0.728778
-0.724309
-0.695642
-0.670457
-0.699124
-0.695642
-0.667963
-0.642778
-0.670457
-0.667963
-0.641272
-0.616087
-0.642778
-0.641272
-0.615568
-0.590383
-0.616087
-0.615568
-0.590852
-0.565667
-0.590383
-0.590852
-0.567124
-0.541939
-0.565667
-0.567124
-0.544383
-0.519198
-0.541939
-0.544383
-0.52263
-0.497445
-0.519198
-0.52263
-0.501865
-0.476679
-0.497445
-0.501865
-0.482087
-0.456902
-0.476679
-0.482087
-0.463297
-0.438111
-0.456902
-0.463297
-0.445494
-0.420309
-0.438111
-0.445494
-0.428679
-0.403494
-0.420309
-0.428679
-0.412852
-0.387667
-0.403494
-0.412852
-0.398013
-0.372827
-0.387667
-0.398013
-0.384161
-0.358976
-0.372827
-0.384161
-0.371297
-0.346111
-0.358976
-0.371297
-0.35942
-0.334235
-0.346111
-0.35942
-0.348531
-0.323346
-0.334235
-0.348531
-0.33863
-0.313445
-0.323346
-0.33863
-0.329716
-0.304531
-0.313445
-0.329716
-0.32179
-0.296605
-0.304531
-0.32179
-0.314852
-0.289667
-0.296605
-0.314852
-0.308902
-0.283716
-0.289667
-0.308902
-0.303939
-0.278753
-0.283716
-0.303939
-0.299963
-0.274778
-0.278753
-0.299963
-0.296976
-0.27179
-0.274778
-0.296976
-0.294976
-0.26979
-0.27179
-0.294976
-0.293963
-0.268778
-0.26979
-0.293963
-0.293939
-0.268753
-0.268778
-0.293939
-0.294902
-0.269716
-0.268753
-0.294902
-0.296852
-0.271667
-0.269716
-0.296852
-0.29979
-0.274605
-0.271667
-0.29979
-0.303716
-0.278531
-0.274605
-0.303716
-0.30863
-0.283445
-0.278531
-0.30863
-0.314531
-0.289346
-0.283445
-0.314531
-0.32142
-0.296235
-0.289346
-0.32142
-0.329297
-0.304111
-0.296235
-0.329297
-0.338161
-0.312976
-0.304111
-0.338161
-0.348013
-0.322827
-0.312976
-0.348013
-0.358852
-0.333667
-0.322827
-0.358852
-0.370679
-0.345494
-0.333667
-0.370679
-0.383494
-0.358309
-0.345494
-0.383494
-0.397297
-0.372111
-0.358309
-0.397297
-0.412087
-0.386902
-0.372111
-0.412087
-0.427865
-0.402679
-0.386902
-0.427865
-0.44463
-0.419445
-0.402679
-0.44463
-0.462383
-0.437198
-0.419445
-0.462383
-0.481124
-0.455939
-0.437198
-0.481124
-0.500852
-0.475667
-0.455939
-0.500852
-0.521568
-0.496383
-0.475667
-0.521568
-0.543272
-0.518087
-0.496383
-0.543272
-0.565963
-0.540778
-0.518087
-0.565963
-0.589642
-0.564457
-0.540778
-0.589642
-0.614309
-0.589124
-0.564457
-0.614309
-0.639963
-0.614778
-0.589124
-0.639963
-0.666605
-0.64142
-0.614778
-0.666605
-0.694235
-0.66905
-0.64142
-0.694235
-0.722852
-0.697667
-0.66905
-0.722852
-0.752457
-0.727272
-0.697667
-0.752457
-0.78305
-0.757865
-0.727272
-0.78305
-0.81463
-0.789445
-0.757865
-0.81463
-0.847198
-0.822013
-0.789445
-0.847198
-0.880753
-0.855568
-0.822013
-0.880753
-0.915297
-0.890111
-0.855568
-0.915297
-0.950827
-0.925642
-0.890111
-0.950827
-0.987346
-0.962161
-0.925642
-0.987346
-1.02485
-0.999667
-0.962161
-1.02485
-1.06335
-1.03816
-0.999667
-1.06335
-1.10283
-1.07764
-1.03816
-1.10283
-1.1433
-1.11811
-1.07764
-1.1433
-1.18475
-1.15957
-1.11811
-1.18475
-1.2272
-1.20201
-1.15957
-1.2272
-1.27063
-1.24544
-1.20201
-1.27063
-1.31505
-1.28986
-1.24544
-1.31505
-1.36046
-1.33527
-1.28986
-1.36046
-1.40685
-1.38167
-1.33527
-1.40685
-1.45423
-1.42905
-1.38167
-1.45423
-1.50261
-1.47742
-1.42905
-1.50261
-1.55196
-1.52678
-1.47742
-1.55196
-1.60231
-1.57712
-1.52678
-1.60231
-1.65364
-1.62846
-1.57712
-1.65364
-1.70596
-1.68078
-1.62846
-1.70596
-1.75927
-1.73409
-1.68078
-1.75927
-1.81357
-1.78838
-1.73409
-1.81357
-1.86885
-1.84367
-1.78838
-1.86885
-1.92512
-1.89994
-1.84367
-1.92512
-1.98238
-1.9572
-1.89994
-1.98238
-2.04063
-2.01544
-1.9572
-2.04063
-2.09986
-2.07468
-2.01544
-2.09986
-2.16009
-2.1349
-2.07468
-2.16009
-2.2213
-2.19611
-2.1349
-2.2213
-2.28349
-2.25831
-2.19611
-2.28349
-2.34668
-2.32149
-2.25831
-2.34668
-2.41085
-2.38567
-2.32149
-2.65567
-2.58749
-2.5633
-2.63147
-2.58749
-2.52031
-2.49611
-2.5633
-2.52031
-2.45411
-2.42991
-2.49611
-2.45411
-2.3889
-2.3647
-2.42991
-2.3889
-2.32468
-2.30048
-2.3647
-2.32468
-2.26144
-2.23725
-2.30048
-2.26144
-2.1992
-2.175
-2.23725
-2.1992
-2.13794
-2.11374
-2.175
-2.13794
-2.07767
-2.05347
-2.11374
-2.07767
-2.01838
-1.99419
-2.05347
-2.01838
-1.96009
-1.93589
-1.99419
-1.96009
-1.90278
-1.87858
-1.93589
-1.90278
-1.84646
-1.82226
-1.87858
-1.84646
-1.79112
-1.76693
-1.82226
-1.79112
-1.73678
-1.71258
-1.76693
-1.73678
-1.68342
-1.65922
-1.71258
-1.68342
-1.63105
-1.60685
-1.65922
-1.63105
-1.57967
-1.55547
-1.60685
-1.57967
-1.52927
-1.50507
-1.55547
-1.52927
-1.47986
-1.45567
-1.50507
-1.47986
-1.43144
-1.40725
-1.45567
-1.43144
-1.38401
-1.35982
-1.40725
-1.38401
-1.33757
-1.31337
-1.35982
-1.33757
-1.29211
-1.26791
-1.31337
-1.29211
-1.24764
-1.22344
-1.26791
-1.24764
-1.20416
-1.17996
-1.22344
-1.20416
-1.16167
-1.13747
-1.17996
-1.16167
-1.12016
-1.09596
-1.13747
-1.12016
-1.07964
-1.05544
-1.09596
-1.07964
-1.04011
-1.01591
-1.05544
-1.04011
-1.00157
-0.977371
-1.01591
-1.00157
-0.964013
-0.939815
-0.977371
-0.964013
-0.927445
-0.903247
-0.939815
-0.927445
-0.891865
-0.867667
-0.903247
-0.891865
-0.857272
-0.833074
-0.867667
-0.857272
-0.823667
-0.799469
-0.833074
-0.823667
-0.79105
-0.766852
-0.799469
-0.79105
-0.75942
-0.735223
-0.766852
-0.75942
-0.728778
-0.704581
-0.735223
-0.728778
-0.699124
-0.674926
-0.704581
-0.699124
-0.670457
-0.64626
-0.674926
-0.670457
-0.642778
-0.618581
-0.64626
-0.642778
-0.616087
-0.591889
-0.618581
-0.616087
-0.590383
-0.566185
-0.591889
-0.590383
-0.565667
-0.541469
-0.566185
-0.565667
-0.541939
-0.517741
-0.541469
-0.541939
-0.519198
-0.495
-0.517741
-0.519198
-0.497445
-0.473247
-0.495
-0.497445
-0.476679
-0.452482
-0.473247
-0.476679
-0.456902
-0.432704
-0.452482
-0.456902
-0.438111
-0.413914
-0.432704
-0.438111
-0.420309
-0.396111
-0.413914
-0.420309
-0.403494
-0.379297
-0.396111
-0.403494
-0.387667
-0.363469
-0.379297
-0.387667
-0.372827
-0.34863
-0.363469
-0.372827
-0.358976
-0.334778
-0.34863
-0.358976
-0.346111
-0.321914
-0.334778
-0.346111
-0.334235
-0.310037
-0.321914
-0.334235
-0.323346
-0.299148
-0.310037
-0.323346
-0.313445
-0.289247
-0.299148
-0.313445
-0.304531
-0.280334
-0.289247
-0.304531
-0.296605
-0.272408
-0.280334
-0.296605
-0.289667
-0.265469
-0.272408
-0.289667
-0.283716
-0.259519
-0.265469
-0.283716
-0.278753
-0.254556
-0.259519
-0.278753
-0.274778
-0.250581
-0.254556
-0.274778
-0.27179
-0.247593
-0.250581
-0.27179
-0.26979
-0.245593
-0.247593
-0.26979
-0.268778
-0.244581
-0.245593
-0.268778
-0.268753
-0.244556
-0.244581
-0.268753
-0.269716
-0.245519
-0.244556
-0.269716
-0.271667
-0.247469
-0.245519
-0.271667
-0.274605
-0.250408
-0.247469
-0.274605
-0.278531
-0.254334
-0.250408
-0.278531
-0.283445
-0.259247
-0.254334
-0.283445
-0.289346
-0.265148
-0.259247
-0.289346
-0.296235
-0.272037
-0.265148
-0.296235
-0.304111
-0.279914
-0.272037
-0.304111
-0.312976
-0.288778
-0.279914
-0.312976
-0.322827
-0.29863
-0.288778
-0.322827
-0.333667
-0.309469
-0.29863
-0.333667
-0.345494
-0.321297
-0.309469
-0.345494
-0.358309
-0.334111
-0.321297
-0.358309
-0.372111
-0.347914
-0.334111
-0.372111
-0.386902
-0.362704
-0.347914
-0.386902
-0.402679
-0.378482
-0.362704
-0.402679
-0.419445
-0.395247
-0.378482
-0.419445
-0.437198
-0.413
-0.395247
-0.437198
-0.455939
-0.431741
-0.413
-0.455939
-0.475667
-0.451469
-0.431741
-0.475667
-0.496383
-0.472185
-0.451469
-0.496383
-0.518087
-0.493889
-0.472185
-0.518087
-0.540778
-0.516581
-0.493889
-0.540778
-0.564457
-0.54026
-0.516581
-0.564457
-0.589124
-0.564926
-0.54026
-0.589124
-0.614778
-0.590581
-0.564926
-0.614778
-0.64142
-0.617223
-0.590581
-0.64142
-0.66905
-0.644852
-0.617223
-0.66905
-0.697667
-0.673469
-0.644852
-0.697667
-0.727272
-0.703074
-0.673469
-0.727272
-0.757865
-0.733667
-0.703074
-0.757865
-0.789445
-0.765247
-0.733667
-0.789445
-0.822013
-0.797815
-0.765247
-0.822013
-0.855568
-0.831371
-0.797815
-0.855568
-0.890111
-0.865914
-0.831371
-0.890111
-0.925642
-0.901445
-0.865914
-0.925642
-0.962161
-0.937963
-0.901445
-0.962161
-0.999667
-0.975469
-0.937963
-0.999667
-1.03816
-1.01396
-0.975469
-1.03816
-1.07764
-1.05344
-1.01396
-1.07764
-1.11811
-1.09391
-1.05344
-1.11811
-1.15957
-1.13537
-1.09391
-1.15957
-1.20201
-1.17782
-1.13537
-1.20201
-1.24544
-1.22125
-1.17782
-1.24544
-1.28986
-1.26567
-1.22125
-1.28986
-1.33527
-1.31107
-1.26567
-1.33527
-1.38167
-1.35747
-1.31107
-1.38167
-1.42905
-1.40485
-1.35747
-1.42905
-1.47742
-1.45322
-1.40485
-1.47742
-1.52678
-1.50258
-1.45322
-1.52678
-1.57712
-1.55293
-1.50258
-1.57712
-1.62846
-1.60426
-1.55293
-1.62846
-1.68078
-1.65658
-1.60426
-1.68078
-1.73409
-1.70989
-1.65658
-1.73409
-1.78838
-1.76419
-1.70989
-1.78838
-1.84367
-1.81947
-1.76419
-1.84367
-1.89994
-1.87574
-1.81947
-1.89994
-1.9572
-1.933
-1.87574
-1.9572
-2.01544
-1.99125
-1.933
-2.01544
-2.07468
-2.05048
-1.99125
-2.07468
-2.1349
-2.1107
-2.05048
-2.1349
-2.19611
-2.17191
-2.1107
-2.19611
-2.25831
-2.23411
-2.17191
-2.25831
-2.32149
-2.2973
-2.23411
-2.32149
-2.38567
-2.36147
-2.2973
-2.63147
-2.5633
-2.54009
-2.60826
-2.5633
-2.49611
-2.4729
-2.54009
-2.49611
-2.42991
-2.4067
-2.4729
-2.42991
-2.3647
-2.34149
-2.4067
-2.3647
-2.30048
-2.27727
-2.34149
-2.30048
-2.23725
-2.21404
-2.27727
-2.23725
-2.175
-2.15179
-2.21404
-2.175
-2.11374
-2.09053
-2.15179
-2.11374
-2.05347
-2.03026
-2.09053
-2.05347
-1.99419
-1.97098
-2.03026
-1.99419
-1.93589
-1.91268
-1.97098
-1.93589
-1.87858
-1.85537
-1.91268
-1.87858
-1.82226
-1.79905
-1.85537
-1.82226
-1.76693
-1.74372
-1.79905
-1.76693
-1.71258
-1.68937
-1.74372
-1.71258
-1.65922
-1.63601
-1.68937
-1.65922
-1.60685
-1.58364
-1.63601
-1.60685
-1.55547
-1.53226
-1.58364
-1.55547
-1.50507
-1.48186
-1.53226
-1.50507
-1.45567
-1.43246
-1.48186
-1.45567
-1.40725
-1.38404
-1.43246
-1.40725
-1.35982
-1.33661
-1.38404
-1.35982
-1.31337
-1.29016
-1.33661
-1.31337
-1.26791
-1.2447
-1.29016
-1.26791
-1.22344
-1.20023
-1.2447
-1.22344
-1.17996
-1.15675
-1.20023
-1.17996
-1.13747
-1.11426
-1.15675
-1.13747
-1.09596
-1.07275
-1.11426
-1.09596
-1.05544
-1.03223
-1.07275
-1.05544
-1.01591
-0.992704
-1.03223
-1.01591
-0.977371
-0.954161
-0.992704
-0.977371
-0.939815
-0.916605
-0.954161
-0.939815
-0.903247
-0.880037
-0.916605
-0.903247
-0.867667
-0.844457
-0.880037
-0.867667
-0.833074
-0.809865
-0.844457
-0.833074
-0.799469
-0.77626
-0.809865
-0.799469
-0.766852
-0.743642
-0.77626
-0.766852
-0.735223
-0.712013
-0.743642
-0.735223
-0.704581
-0.681371
-0.712013
-0.704581
-0.674926
-0.651716
-0.681371
-0.674926
-0.64626
-0.62305
-0.651716
-0.64626
-0.618581
-0.595371
-0.62305
-0.618581
-0.591889
-0.568679
-0.595371
-0.591889
-0.566185
-0.542976
-0.568679
-0.566185
-0.541469
-0.51826
-0.542976
-0.541469
-0.517741
-0.494531
-0.51826
-0.517741
-0.495
-0.47179
-0.494531
-0.495
-0.473247
-0.450037
-0.47179
-0.473247
-0.452482
-0.429272
-0.450037
-0.452482
-0.432704
-0.409494
-0.429272
-0.432704
-0.413914
-0.390704
-0.409494
-0.413914
-0.396111
-0.372902
-0.390704
-0.396111
-0.379297
-0.356087
-0.372902
-0.379297
-0.363469
-0.34026
-0.356087
-0.363469
-0.34863
-0.32542
-0.34026
-0.34863
-0.334778
-0.311568
-0.32542
-0.334778
-0.321914
-0.298704
-0.311568
-0.321914
-0.310037
-0.286827
-0.298704
-0.310037
-0.299148
-0.275939
-0.286827
-0.299148
-0.289247
-0.266037
-0.275939
-0.289247
-0.280334
-0.257124
-0.266037
-0.280334
-0.272408
-0.249198
-0.257124
-0.272408
-0.265469
-0.24226
-0.249198
-0.265469
-0.259519
-0.236309
-0.24226
-0.259519
-0.254556
-0.231346
-0.236309
-0.254556
-0.250581
-0.227371
-0.231346
-0.250581
-0.247593
-0.224383
-0.227371
-0.247593
-0.245593
-0.222383
-0.224383
-0.245593
-0.244581
-0.221371
-0.222383
-0.244581
-0.244556
-0.221346
-0.221371
-0.244556
-0.245519
-0.222309
-0.221346
-0.245519
-0.247469
-0.22426
-0.222309
-0.247469
-0.250408
-0.227198
-0.22426
-0.250408
-0.254334
-0.231124
-0.227198
-0.254334
-0.259247
-0.236037
-0.231124
-0.259247
-0.265148
-0.241939
-0.236037
-0.265148
-0.272037
-0.248827
-0.241939
-0.272037
-0.279914
-0.256704
-0.248827
-0.279914
-0.288778
-0.265568
-0.256704
-0.288778
-0.29863
-0.27542
-0.265568
-0.29863
-0.309469
-0.28626
-0.27542
-0.309469
-0.321297
-0.298087
-0.28626
-0.321297
-0.334111
-0.310902
-0.298087
-0.334111
-0.347914
-0.324704
-0.310902
-0.347914
-0.362704
-0.339494
-0.324704
-0.362704
-0.378482
-0.355272
-0.339494
-0.378482
-0.395247
-0.372037
-0.355272
-0.395247
-0.413
-0.38979
-0.372037
-0.413
-0.431741
-0.408531
-0.38979
-0.431741
-0.451469
-0.42826
-0.408531
-0.451469
-0.472185
-0.448976
-0.42826
-0.472185
-0.493889
-0.470679
-0.448976
-0.493889
-0.516581
-0.493371
-0.470679
-0.516581
-0.54026
-0.51705
-0.493371
-0.54026
-0.564926
-0.541716
-0.51705
-0.564926
-0.590581
-0.567371
-0.541716
-0.590581
-0.617223
-0.594013
-0.567371
-0.617223
-0.644852
-0.621642
-0.594013
-0.644852
-0.673469
-0.65026
-0.621642
-0.673469
-0.703074
-0.679865
-0.65026
-0.703074
-0.733667
-0.710457
-0.679865
-0.733667
-0.765247
-0.742037
-0.710457
-0.765247
-0.797815
-0.774605
-0.742037
-0.797815
-0.831371
-0.808161
-0.774605
-0.831371
-0.865914
-0.842704
-0.808161
-0.865914
-0.901445
-0.878235
-0.842704
-0.901445
-0.937963
-0.914753
-0.878235
-0.937963
-0.975469
-0.95226
-0.914753
-0.975469
-1.01396
-0.990753
-0.95226
-1.01396
-1.05344
-1.03023
-0.990753
-1.05344
-1.09391
-1.0707
-1.03023
-1.09391
-1.13537
-1.11216
-1.0707
-1.13537
-1.17782
-1.15461
-1.11216
-1.17782
-1.22125
-1.19804
-1.15461
-1.22125
-1.26567
-1.24246
-1.19804
-1.26567
-1.31107
-1.28786
-1.24246
-1.31107
-1.35747
-1.33426
-1.28786
-1.35747
-1.40485
-1.38164
-1.33426
-1.40485
-1.45322
-1.43001
-1.38164
-1.45322
-1.50258
-1.47937
-1.43001
-1.50258
-1.55293
-1.52972
-1.47937
-1.55293
-1.60426