# vtk DataFile Version 1.0
unstructured Grid
ASCII
DATASET UNSTRUCTURED_GRID
POINTS 23424 float 
0 0	 0.0
0.0222222 0	 0.0
0.0222222 0.0222222	 0.0
0 0.0222222	 0.0
0.0222222 0	 0.0
0.0444444 0	 0.0
0.0444444 0.0222222	 0.0
0.0222222 0.0222222	 0.0
0.0444444 0	 0.0
0.0666667 0	 0.0
0.0666667 0.0222222	 0.0
0.0444444 0.0222222	 0.0
0.0666667 0	 0.0
0.0888889 0	 0.0
0.0888889 0.0222222	 0.0
0.0666667 0.0222222	 0.0
0.0888889 0	 0.0
0.111111 0	 0.0
0.111111 0.0222222	 0.0
0.0888889 0.0222222	 0.0
0.111111 0	 0.0
0.133333 0	 0.0
0.133333 0.0222222	 0.0
0.111111 0.0222222	 0.0
0.133333 0	 0.0
0.155556 0	 0.0
0.155556 0.0222222	 0.0
0.133333 0.0222222	 0.0
0.155556 0	 0.0
0.177778 0	 0.0
0.177778 0.0222222	 0.0
0.155556 0.0222222	 0.0
0.177778 0	 0.0
0.2 0	 0.0
0.2 0.0222222	 0.0
0.177778 0.0222222	 0.0
0.2 0	 0.0
0.222222 0	 0.0
0.222222 0.0222222	 0.0
0.2 0.0222222	 0.0
0.222222 0	 0.0
0.244444 0	 0.0
0.244444 0.0222222	 0.0
0.222222 0.0222222	 0.0
0.244444 0	 0.0
0.266667 0	 0.0
0.266667 0.0222222	 0.0
0.244444 0.0222222	 0.0
0.266667 0	 0.0
0.288889 0	 0.0
0.288889 0.0222222	 0.0
0.266667 0.0222222	 0.0
0.288889 0	 0.0
0.311111 0	 0.0
0.311111 0.0222222	 0.0
0.288889 0.0222222	 0.0
0.311111 0	 0.0
0.333333 0	 0.0
0.333333 0.0222222	 0.0
0.311111 0.0222222	 0.0
0.333333 0	 0.0
0.355556 0	 0.0
0.355556 0.0222222	 0.0
0.333333 0.0222222	 0.0
0.355556 0	 0.0
0.377778 0	 0.0
0.377778 0.0222222	 0.0
0.355556 0.0222222	 0.0
0.377778 0	 0.0
0.4 0	 0.0
0.4 0.0222222	 0.0
0.377778 0.0222222	 0.0
0.4 0	 0.0
0.422222 0	 0.0
0.422222 0.0222222	 0.0
0.4 0.0222222	 0.0
0.422222 0	 0.0
0.444444 0	 0.0
0.444444 0.0222222	 0.0
0.422222 0.0222222	 0.0
0.444444 0	 0.0
0.466667 0	 0.0
0.466667 0.0222222	 0.0
0.444444 0.0222222	 0.0
0.466667 0	 0.0
0.488889 0	 0.0
0.488889 0.0222222	 0.0
0.466667 0.0222222	 0.0
0.488889 0	 0.0
0.511111 0	 0.0
0.511111 0.0222222	 0.0
0.488889 0.0222222	 0.0
0.511111 0	 0.0
0.533333 0	 0.0
0.533333 0.0222222	 0.0
0.511111 0.0222222	 0.0
0.533333 0	 0.0
0.555556 0	 0.0
0.555556 0.0222222	 0.0
0.533333 0.0222222	 0.0
0.555556 0	 0.0
0.577778 0	 0.0
0.577778 0.0222222	 0.0
0.555556 0.0222222	 0.0
0.577778 0	 0.0
0.6 0	 0.0
0.6 0.0222222	 0.0
0.577778 0.0222222	 0.0
0.6 0	 0.0
0.622222 0	 0.0
0.622222 0.0222222	 0.0
0.6 0.0222222	 0.0
0.622222 0	 0.0
0.644444 0	 0.0
0.644444 0.0222222	 0.0
0.622222 0.0222222	 0.0
0.644444 0	 0.0
0.666667 0	 0.0
0.666667 0.0222222	 0.0
0.644444 0.0222222	 0.0
0.666667 0	 0.0
0.688889 0	 0.0
0.688889 0.0222222	 0.0
0.666667 0.0222222	 0.0
0.688889 0	 0.0
0.711111 0	 0.0
0.711111 0.0222222	 0.0
0.688889 0.0222222	 0.0
0.711111 0	 0.0
0.733333 0	 0.0
0.733333 0.0222222	 0.0
0.711111 0.0222222	 0.0
0.733333 0	 0.0
0.755556 0	 0.0
0.755556 0.0222222	 0.0
0.733333 0.0222222	 0.0
0.755556 0	 0.0
0.777778 0	 0.0
0.777778 0.0222222	 0.0
0.755556 0.0222222	 0.0
0.777778 0	 0.0
0.8 0	 0.0
0.8 0.0222222	 0.0
0.777778 0.0222222	 0.0
0.8 0	 0.0
0.822222 0	 0.0
0.822222 0.0222222	 0.0
0.8 0.0222222	 0.0
0.822222 0	 0.0
0.844444 0	 0.0
0.844444 0.0222222	 0.0
0.822222 0.0222222	 0.0
0.844444 0	 0.0
0.866667 0	 0.0
0.866667 0.0222222	 0.0
0.844444 0.0222222	 0.0
0.866667 0	 0.0
0.888889 0	 0.0
0.888889 0.0222222	 0.0
0.866667 0.0222222	 0.0
0.888889 0	 0.0
0.911111 0	 0.0
0.911111 0.0222222	 0.0
0.888889 0.0222222	 0.0
0.911111 0	 0.0
0.933333 0	 0.0
0.933333 0.0222222	 0.0
0.911111 0.0222222	 0.0
0.933333 0	 0.0
0.955556 0	 0.0
0.955556 0.0222222	 0.0
0.933333 0.0222222	 0.0
0.955556 0	 0.0
0.977778 0	 0.0
0.977778 0.0222222	 0.0
0.955556 0.0222222	 0.0
0.977778 0	 0.0
1 0	 0.0
1 0.0222222	 0.0
0.977778 0.0222222	 0.0
1 0	 0.0
1.02222 0	 0.0
1.02222 0.0222222	 0.0
1 0.0222222	 0.0
1.02222 0	 0.0
1.04444 0	 0.0
1.04444 0.0222222	 0.0
1.02222 0.0222222	 0.0
1.04444 0	 0.0
1.06667 0	 0.0
1.06667 0.0222222	 0.0
1.04444 0.0222222	 0.0
1.06667 0	 0.0
1.08889 0	 0.0
1.08889 0.0222222	 0.0
1.06667 0.0222222	 0.0
1.08889 0	 0.0
1.11111 0	 0.0
1.11111 0.0222222	 0.0
1.08889 0.0222222	 0.0
1.11111 0	 0.0
1.13333 0	 0.0
1.13333 0.0222222	 0.0
1.11111 0.0222222	 0.0
1.13333 0	 0.0
1.15556 0	 0.0
1.15556 0.0222222	 0.0
1.13333 0.0222222	 0.0
1.15556 0	 0.0
1.17778 0	 0.0
1.17778 0.0222222	 0.0
1.15556 0.0222222	 0.0
1.17778 0	 0.0
1.2 0	 0.0
1.2 0.0222222	 0.0
1.17778 0.0222222	 0.0
1.2 0	 0.0
1.22222 0	 0.0
1.22222 0.0222222	 0.0
1.2 0.0222222	 0.0
1.22222 0	 0.0
1.24444 0	 0.0
1.24444 0.0222222	 0.0
1.22222 0.0222222	 0.0
1.24444 0	 0.0
1.26667 0	 0.0
1.26667 0.0222222	 0.0
1.24444 0.0222222	 0.0
1.26667 0	 0.0
1.28889 0	 0.0
1.28889 0.0222222	 0.0
1.26667 0.0222222	 0.0
1.28889 0	 0.0
1.31111 0	 0.0
1.31111 0.0222222	 0.0
1.28889 0.0222222	 0.0
1.31111 0	 0.0
1.33333 0	 0.0
1.33333 0.0222222	 0.0
1.31111 0.0222222	 0.0
1.33333 0	 0.0
1.35556 0	 0.0
1.35556 0.0222222	 0.0
1.33333 0.0222222	 0.0
1.35556 0	 0.0
1.37778 0	 0.0
1.37778 0.0222222	 0.0
1.35556 0.0222222	 0.0
1.37778 0	 0.0
1.4 0	 0.0
1.4 0.0222222	 0.0
1.37778 0.0222222	 0.0
1.4 0	 0.0
1.42222 0	 0.0
1.42222 0.0222222	 0.0
1.4 0.0222222	 0.0
1.42222 0	 0.0
1.44444 0	 0.0
1.44444 0.0222222	 0.0
1.42222 0.0222222	 0.0
1.44444 0	 0.0
1.46667 0	 0.0
1.46667 0.0222222	 0.0
1.44444 0.0222222	 0.0
1.46667 0	 0.0
1.48889 0	 0.0
1.48889 0.0222222	 0.0
1.46667 0.0222222	 0.0
1.48889 0	 0.0
1.51111 0	 0.0
1.51111 0.0222222	 0.0
1.48889 0.0222222	 0.0
1.51111 0	 0.0
1.53333 0	 0.0
1.53333 0.0222222	 0.0
1.51111 0.0222222	 0.0
1.53333 0	 0.0
1.55556 0	 0.0
1.55556 0.0222222	 0.0
1.53333 0.0222222	 0.0
1.55556 0	 0.0
1.57778 0	 0.0
1.57778 0.0222222	 0.0
1.55556 0.0222222	 0.0
1.57778 0	 0.0
1.6 0	 0.0
1.6 0.0222222	 0.0
1.57778 0.0222222	 0.0
1.6 0	 0.0
1.62222 0	 0.0
1.62222 0.0222222	 0.0
1.6 0.0222222	 0.0
1.62222 0	 0.0
1.64444 0	 0.0
1.64444 0.0222222	 0.0
1.62222 0.0222222	 0.0
1.64444 0	 0.0
1.66667 0	 0.0
1.66667 0.0222222	 0.0
1.64444 0.0222222	 0.0
1.66667 0	 0.0
1.68889 0	 0.0
1.68889 0.0222222	 0.0
1.66667 0.0222222	 0.0
1.68889 0	 0.0
1.71111 0	 0.0
1.71111 0.0222222	 0.0
1.68889 0.0222222	 0.0
1.71111 0	 0.0
1.73333 0	 0.0
1.73333 0.0222222	 0.0
1.71111 0.0222222	 0.0
1.73333 0	 0.0
1.75556 0	 0.0
1.75556 0.0222222	 0.0
1.73333 0.0222222	 0.0
1.75556 0	 0.0
1.77778 0	 0.0
1.77778 0.0222222	 0.0
1.75556 0.0222222	 0.0
1.77778 0	 0.0
1.8 0	 0.0
1.8 0.0222222	 0.0
1.77778 0.0222222	 0.0
1.8 0	 0.0
1.82222 0	 0.0
1.82222 0.0222222	 0.0
1.8 0.0222222	 0.0
1.82222 0	 0.0
1.84444 0	 0.0
1.84444 0.0222222	 0.0
1.82222 0.0222222	 0.0
1.84444 0	 0.0
1.86667 0	 0.0
1.86667 0.0222222	 0.0
1.84444 0.0222222	 0.0
1.86667 0	 0.0
1.88889 0	 0.0
1.88889 0.0222222	 0.0
1.86667 0.0222222	 0.0
1.88889 0	 0.0
1.91111 0	 0.0
1.91111 0.0222222	 0.0
1.88889 0.0222222	 0.0
1.91111 0	 0.0
1.93333 0	 0.0
1.93333 0.0222222	 0.0
1.91111 0.0222222	 0.0
1.93333 0	 0.0
1.95556 0	 0.0
1.95556 0.0222222	 0.0
1.93333 0.0222222	 0.0
1.95556 0	 0.0
1.97778 0	 0.0
1.97778 0.0222222	 0.0
1.95556 0.0222222	 0.0
1.97778 0	 0.0
2 0	 0.0
2 0.0222222	 0.0
1.97778 0.0222222	 0.0
2 0	 0.0
2.02222 0	 0.0
2.02222 0.0222222	 0.0
2 0.0222222	 0.0
2.02222 0	 0.0
2.04444 0	 0.0
2.04444 0.0222222	 0.0
2.02222 0.0222222	 0.0
2.04444 0	 0.0
2.06667 0	 0.0
2.06667 0.0222222	 0.0
2.04444 0.0222222	 0.0
2.06667 0	 0.0
2.08889 0	 0.0
2.08889 0.0222222	 0.0
2.06667 0.0222222	 0.0
2.08889 0	 0.0
2.11111 0	 0.0
2.11111 0.0222222	 0.0
2.08889 0.0222222	 0.0
2.11111 0	 0.0
2.13333 0	 0.0
2.13333 0.0222222	 0.0
2.11111 0.0222222	 0.0
2.13333 0	 0.0
2.15556 0	 0.0
2.15556 0.0222222	 0.0
2.13333 0.0222222	 0.0
2.15556 0	 0.0
2.17778 0	 0.0
2.17778 0.0222222	 0.0
2.15556 0.0222222	 0.0
2.17778 0	 0.0
2.2 0	 0.0
2.2 0.0222222	 0.0
2.17778 0.0222222	 0.0
2.2 0	 0.0
2.22222 0	 0.0
2.22222 0.0222222	 0.0
2.2 0.0222222	 0.0
2.22222 0	 0.0
2.24444 0	 0.0
2.24444 0.0222222	 0.0
2.22222 0.0222222	 0.0
2.24444 0	 0.0
2.26667 0	 0.0
2.26667 0.0222222	 0.0
2.24444 0.0222222	 0.0
2.26667 0	 0.0
2.28889 0	 0.0
2.28889 0.0222222	 0.0
2.26667 0.0222222	 0.0
2.28889 0	 0.0
2.31111 0	 0.0
2.31111 0.0222222	 0.0
2.28889 0.0222222	 0.0
2.31111 0	 0.0
2.33333 0	 0.0
2.33333 0.0222222	 0.0
2.31111 0.0222222	 0.0
2.33333 0	 0.0
2.35556 0	 0.0
2.35556 0.0222222	 0.0
2.33333 0.0222222	 0.0
2.35556 0	 0.0
2.37778 0	 0.0
2.37778 0.0222222	 0.0
2.35556 0.0222222	 0.0
2.37778 0	 0.0
2.4 0	 0.0
2.4 0.0222222	 0.0
2.37778 0.0222222	 0.0
2.4 0	 0.0
2.42222 0	 0.0
2.42222 0.0222222	 0.0
2.4 0.0222222	 0.0
2.42222 0	 0.0
2.44444 0	 0.0
2.44444 0.0222222	 0.0
2.42222 0.0222222	 0.0
2.44444 0	 0.0
2.46667 0	 0.0
2.46667 0.0222222	 0.0
2.44444 0.0222222	 0.0
2.46667 0	 0.0
2.48889 0	 0.0
2.48889 0.0222222	 0.0
2.46667 0.0222222	 0.0
2.48889 0	 0.0
2.51111 0	 0.0
2.51111 0.0222222	 0.0
2.48889 0.0222222	 0.0
2.51111 0	 0.0
2.53333 0	 0.0
2.53333 0.0222222	 0.0
2.51111 0.0222222	 0.0
2.53333 0	 0.0
2.55556 0	 0.0
2.55556 0.0222222	 0.0
2.53333 0.0222222	 0.0
2.55556 0	 0.0
2.57778 0	 0.0
2.57778 0.0222222	 0.0
2.55556 0.0222222	 0.0
2.57778 0	 0.0
2.6 0	 0.0
2.6 0.0222222	 0.0
2.57778 0.0222222	 0.0
2.6 0	 0.0
2.62222 0	 0.0
2.62222 0.0222222	 0.0
2.6 0.0222222	 0.0
2.62222 0	 0.0
2.64444 0	 0.0
2.64444 0.0222222	 0.0
2.62222 0.0222222	 0.0
2.64444 0	 0.0
2.66667 0	 0.0
2.66667 0.0222222	 0.0
2.64444 0.0222222	 0.0
2.66667 0	 0.0
2.68889 0	 0.0
2.68889 0.0222222	 0.0
2.66667 0.0222222	 0.0
2.68889 0	 0.0
2.71111 0	 0.0
2.71111 0.0222222	 0.0
2.68889 0.0222222	 0.0
2.71111 0	 0.0
2.73333 0	 0.0
2.73333 0.0222222	 0.0
2.71111 0.0222222	 0.0
2.73333 0	 0.0
2.75556 0	 0.0
2.75556 0.0222222	 0.0
2.73333 0.0222222	 0.0
2.75556 0	 0.0
2.77778 0	 0.0
2.77778 0.0222222	 0.0
2.75556 0.0222222	 0.0
2.77778 0	 0.0
2.8 0	 0.0
2.8 0.0222222	 0.0
2.77778 0.0222222	 0.0
2.8 0	 0.0
2.82222 0	 0.0
2.82222 0.0222222	 0.0
2.8 0.0222222	 0.0
2.82222 0	 0.0
2.84444 0	 0.0
2.84444 0.0222222	 0.0
2.82222 0.0222222	 0.0
2.84444 0	 0.0
2.86667 0	 0.0
2.86667 0.0222222	 0.0
2.84444 0.0222222	 0.0
2.86667 0	 0.0
2.88889 0	 0.0
2.88889 0.0222222	 0.0
2.86667 0.0222222	 0.0
2.88889 0	 0.0
2.91111 0	 0.0
2.91111 0.0222222	 0.0
2.88889 0.0222222	 0.0
2.91111 0	 0.0
[...]
POINT_DATA 23424
SCALARS levelset_first float
LOOKUP_TABLE default
-5.41841
-5.31855
-5.29238
-5.39224
-5.31855
-5.21968
-5.1935
-5.29238
-5.21968
-5.12179
-5.09562
-5.1935
-5.12179
-5.0249
-4.99872
-5.09562
-5.0249
-4.92899
-4.90281
-4.99872
-4.92899
-4.83406
-4.80789
-4.90281
-4.83406
-4.74013
-4.71396
-4.80789
-4.74013
-4.64718
-4.62101
-4.71396
-4.64718
-4.55522
-4.52905
-4.62101
-4.55522
-4.46425
-4.43808
-4.52905
-4.46425
-4.37427
-4.3481
-4.43808
-4.37427
-4.28527
-4.2591
-4.3481
-4.28527
-4.19726
-4.17109
-4.2591
-4.19726
-4.11024
-4.08407
-4.17109
-4.11024
-4.02421
-3.99804
-4.08407
-4.02421
-3.93917
-3.91299
-3.99804
-3.93917
-3.85511
-3.82893
-3.91299
-3.85511
-3.77204
-3.74586
-3.82893
-3.77204
-3.68995
-3.66378
-3.74586
-3.68995
-3.60886
-3.58269
-3.66378
-3.60886
-3.52875
-3.50258
-3.58269
-3.52875
-3.44963
-3.42346
-3.50258
-3.44963
-3.3715
-3.34533
-3.42346
-3.3715
-3.29436
-3.26818
-3.34533
-3.29436
-3.2182
-3.19203
-3.26818
-3.2182
-3.14303
-3.11686
-3.19203
-3.14303
-3.06885
-3.04268
-3.11686
-3.06885
-2.99566
-2.96948
-3.04268
-2.99566
-2.92345
-2.89728
-2.96948
-2.92345
-2.85223
-2.82606
-2.89728
-2.85223
-2.782
-2.75583
-2.82606
-2.782
-2.71276
-2.68659
-2.75583
-2.71276
-2.6445
-2.61833
-2.68659
-2.6445
-2.57724
-2.55106
-2.61833
-2.57724
-2.51096
-2.48478
-2.55106
-2.51096
-2.44566
-2.41949
-2.48478
-2.44566
-2.38136
-2.35519
-2.41949
-2.38136
-2.31804
-2.29187
-2.35519
-2.31804
-2.25571
-2.22954
-2.29187
-2.25571
-2.19437
-2.1682
-2.22954
-2.19437
-2.13402
-2.10784
-2.1682
-2.13402
-2.07465
-2.04848
-2.10784
-2.07465
-2.01627
-1.9901
-2.04848
-2.01627
-1.95888
-1.93271
-1.9901
-1.95888
-1.90248
-1.87631
-1.93271
-1.90248
-1.84706
-1.82089
-1.87631
-1.84706
-1.79263
-1.76646
-1.82089
-1.79263
-1.73919
-1.71302
-1.76646
-1.73919
-1.68674
-1.66057
-1.71302
-1.68674
-1.63528
-1.6091
-1.66057
-1.63528
-1.5848
-1.55863
-1.6091
-1.5848
-1.53531
-1.50914
-1.55863
-1.53531
-1.48681
-1.46063
-1.50914
-1.48681
-1.43929
-1.41312
-1.46063
-1.43929
-1.39276
-1.36659
-1.41312
-1.39276
-1.34723
-1.32105
-1.36659
-1.34723
-1.30267
-1.2765
-1.32105
-1.30267
-1.25911
-1.23294
-1.2765
-1.25911
-1.21653
-1.19036
-1.23294
-1.21653
-1.17495
-1.14877
-1.19036
-1.17495
-1.13434
-1.10817
-1.14877
-1.13434
-1.09473
-1.06856
-1.10817
-1.09473
-1.05611
-1.02993
-1.06856
-1.05611
-1.01847
-0.992295
-1.02993
-1.01847
-0.981817
-0.955644
-0.992295
-0.981817
-0.946154
-0.919982
-0.955644
-0.946154
-0.911479
-0.885307
-0.919982
-0.911479
-0.877792
-0.851619
-0.885307
-0.877792
-0.845092
-0.818919
-0.851619
-0.845092
-0.81338
-0.787207
-0.818919
-0.81338
-0.782656
-0.756483
-0.787207
-0.782656
-0.752919
-0.726746
-0.756483
-0.752919
-0.72417
-0.697997
-0.726746
-0.72417
-0.696409
-0.670236
-0.697997
-0.696409
-0.669635
-0.643462
-0.670236
-0.669635
-0.643849
-0.617676
-0.643462
-0.643849
-0.61905
-0.592877
-0.617676
-0.61905
-0.595239
-0.569066
-0.592877
-0.595239
-0.572416
-0.546243
-0.569066
-0.572416
-0.550581
-0.524408
-0.546243
-0.550581
-0.529733
-0.50356
-0.524408
-0.529733
-0.509873
-0.4837
-0.50356
-0.509873
-0.491
-0.464827
-0.4837
-0.491
-0.473115
-0.446942
-0.464827
-0.473115
-0.456218
-0.430045
-0.446942
-0.456218
-0.440308
-0.414135
-0.430045
-0.440308
-0.425386
-0.399213
-0.414135
-0.425386
-0.411452
-0.385279
-0.399213
-0.411452
-0.398505
-0.372333
-0.385279
-0.398505
-0.386546
-0.360374
-0.372333
-0.386546
-0.375575
-0.349402
-0.360374
-0.375575
-0.365591
-0.339419
-0.349402
-0.365591
-0.356595
-0.330423
-0.339419
-0.356595
-0.348587
-0.322414
-0.330423
-0.348587
-0.341566
-0.315393
-0.322414
-0.341566
-0.335533
-0.30936
-0.315393
-0.335533
-0.330488
-0.304315
-0.30936
-0.330488
-0.32643
-0.300257
-0.304315
-0.32643
-0.32336
-0.297187
-0.300257
-0.32336
-0.321278
-0.295105
-0.297187
-0.321278
-0.320183
-0.29401
-0.295105
-0.320183
-0.320076
-0.293903
-0.29401
-0.320076
-0.320956
-0.294783
-0.293903
-0.320956
-0.322824
-0.296652
-0.294783
-0.322824
-0.32568
-0.299507
-0.296652
-0.32568
-0.329524
-0.303351
-0.299507
-0.329524
-0.334355
-0.308182
-0.303351
-0.334355
-0.340174
-0.314001
-0.308182
-0.340174
-0.34698
-0.320807
-0.314001
-0.34698
-0.354774
-0.328601
-0.320807
-0.354774
-0.363556
-0.337383
-0.328601
-0.363556
-0.373325
-0.347153
-0.337383
-0.373325
-0.384083
-0.35791
-0.347153
-0.384083
-0.395827
-0.369654
-0.35791
-0.395827
-0.40856
-0.382387
-0.369654
-0.40856
-0.42228
-0.396107
-0.382387
-0.42228
-0.436987
-0.410814
-0.396107
-0.436987
-0.452683
-0.42651
-0.410814
-0.452683
-0.469366
-0.443193
-0.42651
-0.469366
-0.487036
-0.460863
-0.443193
-0.487036
-0.505695
-0.479522
-0.460863
-0.505695
-0.525341
-0.499168
-0.479522
-0.525341
-0.545974
-0.519801
-0.499168
-0.545974
-0.567595
-0.541423
-0.519801
-0.567595
-0.590204
-0.564032
-0.541423
-0.590204
-0.613801
-0.587628
-0.564032
-0.613801
-0.638385
-0.612212
-0.587628
-0.638385
-0.663957
-0.637784
-0.612212
-0.663957
-0.690517
-0.664344
-0.637784
-0.690517
-0.718064
-0.691891
-0.664344
-0.718064
-0.746599
-0.720426
-0.691891
-0.746599
-0.776121
-0.749948
-0.720426
-0.776121
-0.806631
-0.780459
-0.749948
-0.806631
-0.838129
-0.811956
-0.780459
-0.838129
-0.870615
-0.844442
-0.811956
-5.39224
-5.29238
-5.26719
-5.36705
-5.29238
-5.1935
-5.16832
-5.26719
-5.1935
-5.09562
-5.07043
-5.16832
-5.09562
-4.99872
-4.97354
-5.07043
-4.99872
-4.90281
-4.87763
-4.97354
-4.90281
-4.80789
-4.78271
-4.87763
-4.80789
-4.71396
-4.68877
-4.78271
-4.71396
-4.62101
-4.59582
-4.68877
-4.62101
-4.52905
-4.50387
-4.59582
-4.52905
-4.43808
-4.41289
-4.50387
-4.43808
-4.3481
-4.32291
-4.41289
-4.3481
-4.2591
-4.23391
-4.32291
-4.2591
-4.17109
-4.14591
-4.23391
-4.17109
-4.08407
-4.05889
-4.14591
-4.08407
-3.99804
-3.97285
-4.05889
-3.99804
-3.91299
-3.88781
-3.97285
-3.91299
-3.82893
-3.80375
-3.88781
-3.82893
-3.74586
-3.72068
-3.80375
-3.74586
-3.66378
-3.6386
-3.72068
-3.66378
-3.58269
-3.5575
-3.6386
-3.58269
-3.50258
-3.47739
-3.5575
-3.50258
-3.42346
-3.39828
-3.47739
-3.42346
-3.34533
-3.32014
-3.39828
-3.34533
-3.26818
-3.243
-3.32014
-3.26818
-3.19203
-3.16684
-3.243
-3.19203
-3.11686
-3.09167
-3.16684
-3.11686
-3.04268
-3.01749
-3.09167
-3.04268
-2.96948
-2.9443
-3.01749
-2.96948
-2.89728
-2.87209
-2.9443
-2.89728
-2.82606
-2.80088
-2.87209
-2.82606
-2.75583
-2.73064
-2.80088
-2.75583
-2.68659
-2.6614
-2.73064
-2.68659
-2.61833
-2.59315
-2.6614
-2.61833
-2.55106
-2.52588
-2.59315
-2.55106
-2.48478
-2.4596
-2.52588
-2.48478
-2.41949
-2.39431
-2.4596
-2.41949
-2.35519
-2.33
-2.39431
-2.35519
-2.29187
-2.26668
-2.33
-2.29187
-2.22954
-2.20436
-2.26668
-2.22954
-2.1682
-2.14301
-2.20436
-2.1682
-2.10784
-2.08266
-2.14301
-2.10784
-2.04848
-2.02329
-2.08266
-2.04848
-1.9901
-1.96491
-2.02329
-1.9901
-1.93271
-1.90752
-1.96491
-1.93271
-1.87631
-1.85112
-1.90752
-1.87631
-1.82089
-1.7957
-1.85112
-1.82089
-1.76646
-1.74128
-1.7957
-1.76646
-1.71302
-1.68784
-1.74128
-1.71302
-1.66057
-1.63538
-1.68784
-1.66057
-1.6091
-1.58392
-1.63538
-1.6091
-1.55863
-1.53344
-1.58392
-1.55863
-1.50914
-1.48395
-1.53344
-1.50914
-1.46063
-1.43545
-1.48395
-1.46063
-1.41312
-1.38793
-1.43545
-1.41312
-1.36659
-1.34141
-1.38793
-1.36659
-1.32105
-1.29587
-1.34141
-1.32105
-1.2765
-1.25132
-1.29587
-1.2765
-1.23294
-1.20775
-1.25132
-1.23294
-1.19036
-1.16518
-1.20775
-1.19036
-1.14877
-1.12359
-1.16518
-1.14877
-1.10817
-1.08299
-1.12359
-1.10817
-1.06856
-1.04337
-1.08299
-1.06856
-1.02993
-1.00475
-1.04337
-1.02993
-0.992295
-0.967109
-1.00475
-0.992295
-0.955644
-0.930459
-0.967109
-0.955644
-0.919982
-0.894796
-0.930459
-0.919982
-0.885307
-0.860121
-0.894796
-0.885307
-0.851619
-0.826434
-0.860121
-0.851619
-0.818919
-0.793734
-0.826434
-0.818919
-0.787207
-0.762022
-0.793734
-0.787207
-0.756483
-0.731298
-0.762022
-0.756483
-0.726746
-0.701561
-0.731298
-0.726746
-0.697997
-0.672812
-0.701561
-0.697997
-0.670236
-0.645051
-0.672812
-0.670236
-0.643462
-0.618277
-0.645051
-0.643462
-0.617676
-0.592491
-0.618277
-0.617676
-0.592877
-0.567692
-0.592491
-0.592877
-0.569066
-0.543881
-0.567692
-0.569066
-0.546243
-0.521058
-0.543881
-0.546243
-0.524408
-0.499223
-0.521058
-0.524408
-0.50356
-0.478375
-0.499223
-0.50356
-0.4837
-0.458515
-0.478375
-0.4837
-0.464827
-0.439642
-0.458515
-0.464827
-0.446942
-0.421757
-0.439642
-0.446942
-0.430045
-0.40486
-0.421757
-0.430045
-0.414135
-0.38895
-0.40486
-0.414135
-0.399213
-0.374028
-0.38895
-0.399213
-0.385279
-0.360094
-0.374028
-0.385279
-0.372333
-0.347147
-0.360094
-0.372333
-0.360374
-0.335188
-0.347147
-0.360374
-0.349402
-0.324217
-0.335188
-0.349402
-0.339419
-0.314233
-0.324217
-0.339419
-0.330423
-0.305237
-0.314233
-0.330423
-0.322414
-0.297229
-0.305237
-0.322414
-0.315393
-0.290208
-0.297229
-0.315393
-0.30936
-0.284175
-0.290208
-0.30936
-0.304315
-0.27913
-0.284175
-0.304315
-0.300257
-0.275072
-0.27913
-0.300257
-0.297187
-0.272002
-0.275072
-0.297187
-0.295105
-0.26992
-0.272002
-0.295105
-0.29401
-0.268825
-0.26992
-0.29401
-0.293903
-0.268718
-0.268825
-0.293903
-0.294783
-0.269598
-0.268718
-0.294783
-0.296652
-0.271466
-0.269598
-0.296652
-0.299507
-0.274322
-0.271466
-0.299507
-0.303351
-0.278166
-0.274322
-0.303351
-0.308182
-0.282997
-0.278166
-0.308182
-0.314001
-0.288816
-0.282997
-0.314001
-0.320807
-0.295622
-0.288816
-0.320807
-0.328601
-0.303416
-0.295622
-0.328601
-0.337383
-0.312198
-0.303416
-0.337383
-0.347153
-0.321967
-0.312198
-0.347153
-0.35791
-0.332724
-0.321967
-0.35791
-0.369654
-0.344469
-0.332724
-0.369654
-0.382387
-0.357202
-0.344469
-0.382387
-0.396107
-0.370922
-0.357202
-0.396107
-0.410814
-0.385629
-0.370922
-0.410814
-0.42651
-0.401325
-0.385629
-0.42651
-0.443193
-0.418008
-0.401325
-0.443193
-0.460863
-0.435678
-0.418008
-0.460863
-0.479522
-0.454337
-0.435678
-0.479522
-0.499168
-0.473983
-0.454337
-0.499168
-0.519801
-0.494616
-0.473983
-0.519801
-0.541423
-0.516237
-0.494616
-0.541423
-0.564032
-0.538846
-0.516237
-0.564032
-0.587628
-0.562443
-0.538846
-0.587628
-0.612212
-0.587027
-0.562443
-0.612212
-0.637784
-0.612599
-0.587027
-0.637784
-0.664344
-0.639159
-0.612599
-0.664344
-0.691891
-0.666706
-0.639159
-0.691891
-0.720426
-0.695241
-0.666706
-0.720426
-0.749948
-0.724763
-0.695241
-0.749948
-0.780459
-0.755273
-0.724763
-0.780459
-0.811956
-0.786771
-0.755273
-0.811956
-0.844442
-0.819257
-0.786771
-5.36705
-5.26719
-5.24299
-5.34285
-5.26719
-5.16832
-5.14412
-5.24299
-5.16832
-5.07043
-5.04624
-5.14412
-5.07043
-4.97354
-4.94934
-5.04624
-4.97354
-4.87763
-4.85343
-4.94934
-4.87763
-4.78271
-4.75851
-4.85343
-4.78271
-4.68877
-4.66457
-4.75851
-4.68877
-4.59582
-4.57163
-4.66457
-4.59582
-4.50387
-4.47967
-4.57163
-4.50387
-4.41289
-4.3887
-4.47967
-4.41289
-4.32291
-4.29871
-4.3887
-4.32291
-4.23391
-4.20972
-4.29871
-4.23391
-4.14591
-4.12171
-4.20972
-4.14591
-4.05889
-4.03469
-4.12171
-4.05889
-3.97285
-3.94865
-4.03469
-3.97285
-3.88781
-3.86361
-3.94865
-3.88781
-3.80375
-3.77955
-3.86361
-3.80375
-3.72068
-3.69648
-3.77955
-3.72068
-3.6386
-3.6144
-3.69648
-3.6386
-3.5575
-3.5333
-3.6144
-3.5575
-3.47739
-3.4532
-3.5333
-3.47739
-3.39828
-3.37408
-3.4532
-3.39828
-3.32014
-3.29595
-3.37408
-3.32014
-3.243
-3.2188
-3.29595
-3.243
-3.16684
-3.14265
-3.2188
-3.16684
-3.09167
-3.06748
-3.14265
-3.09167
-3.01749
-2.9933
-3.06748
-3.01749
-2.9443
-2.9201
-2.9933
-2.9443
-2.87209
-2.8479
-2.9201
-2.87209
-2.80088
-2.77668
-2.8479
-2.80088
-2.73064
-2.70645
-2.77668
-2.73064
-2.6614
-2.6372
-2.70645
-2.6614
-2.59315
-2.56895
-2.6372
-2.59315
-2.52588
-2.50168
-2.56895
-2.52588
-2.4596
-2.4354
-2.50168
-2.4596
-2.39431
-2.37011
-2.4354
-2.39431
-2.33
-2.3058
-2.37011
-2.33
-2.26668
-2.24249
-2.3058
-2.26668
-2.20436
-2.18016
-2.24249
-2.20436
-2.14301
-2.11882
-2.18016
-2.14301
-2.08266
-2.05846
-2.11882
-2.08266
-2.02329
-1.9991
-2.05846
-2.02329
-1.96491
-1.94072
-1.9991
-1.96491
-1.90752
-1.88333
-1.94072
-1.90752
-1.85112
-1.82692
-1.88333
-1.85112
-1.7957
-1.77151
-1.82692
-1.7957
-1.74128
-1.71708
-1.77151
-1.74128
-1.68784
-1.66364
-1.71708
-1.68784
-1.63538
-1.61119
-1.66364
-1.63538
-1.58392
-1.55972
-1.61119
-1.58392
-1.53344
-1.50924
-1.55972
-1.53344
-1.48395
-1.45975
-1.50924
-1.48395
-1.43545
-1.41125
-1.45975
-1.43545
-1.38793
-1.36374
-1.41125
-1.38793
-1.34141
-1.31721
-1.36374
-1.34141
-1.29587
-1.27167
-1.31721
-1.29587
-1.25132
-1.22712
-1.27167
-1.25132
-1.20775
-1.18355
-1.22712
-1.20775
-1.16518
-1.14098
-1.18355
-1.16518
-1.12359
-1.09939
-1.14098
-1.12359
-1.08299
-1.05879
-1.09939
-1.08299
-1.04337
-1.01918
-1.05879
-1.04337
-1.00475
-0.98055
-1.01918
-1.00475
-0.967109
-0.942912
-0.98055
-0.967109
-0.930459
-0.906262
-0.942912
-0.930459
-0.894796
-0.870599
-0.906262
-0.894796
-0.860121
-0.835924
-0.870599
-0.860121
-0.826434
-0.802237
-0.835924
-0.826434
-0.793734
-0.769537
-0.802237
-0.793734
-0.762022
-0.737825
-0.769537
-0.762022
-0.731298
-0.7071
-0.737825
-0.731298
-0.701561
-0.677364
-0.7071
-0.701561
-0.672812
-0.648614
-0.677364
-0.672812
-0.645051
-0.620853
-0.648614
-0.645051
-0.618277
-0.594079
-0.620853
-0.618277
-0.592491
-0.568293
-0.594079
-0.592491
-0.567692
-0.543495
-0.568293
-0.567692
-0.543881
-0.519684
-0.543495
-0.543881
-0.521058
-0.496861
-0.519684
-0.521058
-0.499223
-0.475025
-0.496861
-0.499223
-0.478375
-0.454177
-0.475025
-0.478375
-0.458515
-0.434317
-0.454177
-0.458515
-0.439642
-0.415444
-0.434317
-0.439642
-0.421757
-0.39756
-0.415444
-0.421757
-0.40486
-0.380662
-0.39756
-0.40486
-0.38895
-0.364753
-0.380662
-0.38895
-0.374028
-0.349831
-0.364753
-0.374028
-0.360094
-0.335896
-0.349831
-0.360094
-0.347147
-0.32295
-0.335896
-0.347147
-0.335188
-0.310991
-0.32295
-0.335188
-0.324217
-0.30002
-0.310991
-0.324217
-0.314233
-0.290036
-0.30002
-0.314233
-0.305237
-0.28104
-0.290036
-0.305237
-0.297229
-0.273031
-0.28104
-0.297229
-0.290208
-0.266011
-0.273031
-0.290208
-0.284175
-0.259978
-0.266011
-0.284175
-0.27913
-0.254932
-0.259978
-0.27913
-0.275072
-0.250875
-0.254932
-0.275072
-0.272002
-0.247804
-0.250875
-0.272002
-0.26992
-0.245722
-0.247804
-0.26992
-0.268825
-0.244627
-0.245722
-0.268825
-0.268718
-0.24452
-0.244627
-0.268718
-0.269598
-0.245401
-0.24452
-0.269598
-0.271466
-0.247269
-0.245401
-0.271466
-0.274322
-0.250125
-0.247269
-0.274322
-0.278166
-0.253968
-0.250125
-0.278166
-0.282997
-0.258799
-0.253968
-0.282997
-0.288816
-0.264618
-0.258799
-0.288816
-0.295622
-0.271425
-0.264618
-0.295622
-0.303416
-0.279219
-0.271425
-0.303416
-0.312198
-0.288
-0.279219
-0.312198
-0.321967
-0.29777
-0.288
-0.321967
-0.332724
-0.308527
-0.29777
-0.332724
-0.344469
-0.320272
-0.308527
-0.344469
-0.357202
-0.333004
-0.320272
-0.357202
-0.370922
-0.346724
-0.333004
-0.370922
-0.385629
-0.361432
-0.346724
-0.385629
-0.401325
-0.377127
-0.361432
-0.401325
-0.418008
-0.39381
-0.377127
-0.418008
-0.435678
-0.411481
-0.39381
-0.435678
-0.454337
-0.430139
-0.411481
-0.454337
-0.473983
-0.449785
-0.430139
-0.473983
-0.494616
-0.470419
-0.449785
-0.494616
-0.516237
-0.49204
-0.470419
-0.516237
-0.538846
-0.514649
-0.49204
-0.538846
-0.562443
-0.538245
-0.514649
-0.562443
-0.587027
-0.56283
-0.538245
-0.587027
-0.612599
-0.588402
-0.56283
-0.612599
-0.639159
-0.614961
-0.588402
-0.639159
-0.666706
-0.642508
-0.614961
-0.666706
-0.695241
-0.671043
-0.642508
-0.695241
-0.724763
-0.700566
-0.671043
-0.724763
-0.755273
-0.731076
-0.700566
-0.755273
-0.786771
-0.762574
-0.731076
-0.786771
-0.819257
-0.795059
-0.762574
-5.34285
-5.24299
-5.21978
-5.31964
-5.24299
-5.14412
-5.12091
-5.21978
-5.14412
-5.04624
-5.02303
-5.12091
-5.04624
-4.94934
-4.92613
-5.02303
-4.94934
-4.85343
-4.83022
-4.92613
-4.85343
-4.75851
-4.7353
-4.83022
-4.75851
-4.66457
-4.64136
-4.7353
-4.66457
-4.57163
-4.54842
-4.64136
-4.57163
-4.47967
-4.45646
-4.54842
-4.47967
-4.3887
-4.36549
-4.45646
-4.3887
-4.29871
-4.2755
-4.36549
-4.29871
-4.20972
-4.18651
-4.2755
-4.20972
-4.12171
-4.0985
-4.18651
-4.12171
-4.03469
-4.01148
-4.0985
-4.03469
-3.94865
-3.92545
-4.01148
-3.94865
-3.86361
-3.8404
-3.92545
-3.86361
-3.77955
-3.75634
-3.8404
-3.77955
-3.69648
-3.67327
-3.75634
-3.69648
-3.6144
-3.59119
-3.67327
-3.6144
-3.5333
-3.51009
-3.59119
-3.5333
-3.4532
-3.42999
-3.51009
-3.4532
-3.37408
-3.35087
-3.42999
-3.37408
-3.29595
-3.27274
-3.35087
-3.29595
-3.2188
-3.19559
-3.27274
-3.2188
-3.14265
-3.11944
-3.19559
-3.14265
-3.06748
-3.04427
-3.11944
-3.06748
-2.9933
-2.97009
-3.04427
-2.9933
-2.9201
-2.89689
-2.97009
-2.9201
-2.8479
-2.82469
-2.89689
-2.8479
-2.77668
-2.75347
-2.82469
-2.77668
-2.70645
-2.68324
-2.75347
-2.70645
-2.6372
-2.61399
-2.68324
-2.6372
-2.56895
-2.54574
-2.61399
-2.56895
-2.50168
-2.47847
-2.54574
-2.50168
-2.4354
-2.41219
-2.47847
-2.4354
-2.37011
-2.3469
-2.41219
-2.37011
-2.3058
-2.28259
-2.3469
-2.3058
-2.24249
-2.21928
-2.28259
-2.24249
-2.18016
-2.15695
-2.21928
-2.18016
-2.11882
-2.09561
-2.15695
-2.11882
-2.05846
-2.03525
-2.09561
-2.05846
-1.9991
-1.97589
-2.03525
-1.9991
-1.94072
-1.91751
-1.97589
-1.94072
-1.88333
-1.86012
-1.91751
-1.88333
-1.82692
-1.80371
-1.86012
-1.82692
-1.77151
-1.7483
-1.80371
-1.77151
-1.71708
-1.69387
-1.7483
-1.71708
-1.66364
-1.64043
-1.69387
-1.66364
-1.61119
-1.58798
-1.64043
-1.61119
-1.55972
-1.53651
-1.58798
-1.55972
-1.50924
-1.48603
-1.53651
-1.50924
-1.45975
-1.43654
-1.48603
-1.45975
-1.41125
-1.38804
-1.43654
-1.41125
-1.36374
-1.34053
-1.38804
-1.36374
-1.31721
-1.294
-1.34053
-1.31721
-1.27167
-1.24846
-1.294
-1.27167
-1.22712
-1.20391
-1.24846
-1.22712
-1.18355
-1.16034
-1.20391
-1.18355
-1.14098
-1.11777
-1.16034
-1.14098
-1.09939
-1.07618
-1.11777
-1.09939
-1.05879
-1.03558
-1.07618
-1.05879
-1.01918
-0.995966
-1.03558
-1.01918
-0.98055
-0.95734
-0.995966
-0.98055
-0.942912
-0.919702
-0.95734
-0.942912
-0.906262
-0.883052
-0.919702
-0.906262
-0.870599
-0.847389
-0.883052
-0.870599
-0.835924
-0.812714
-0.847389
-0.835924
-0.802237
-0.779027
-0.812714
-0.802237
-0.769537
-0.746327
-0.779027
-0.769537
-0.737825
-0.714615
-0.746327
-0.737825
-0.7071
-0.68389
-0.714615
-0.7071
-0.677364
-0.654154
-0.68389
-0.677364
-0.648614
-0.625405
-0.654154
-0.648614
-0.620853
-0.597643
-0.625405
-0.620853
-0.594079
-0.570869
-0.597643
-0.594079
-0.568293
-0.545083
-0.570869
-0.568293
-0.543495
-0.520285
-0.545083
-0.543495
-0.519684
-0.496474
-0.520285
-0.519684
-0.496861
-0.473651
-0.496474
-0.496861
-0.475025
-0.451815
-0.473651
-0.475025
-0.454177
-0.430967
-0.451815
-0.454177
-0.434317
-0.411107
-0.430967
-0.434317
-0.415444
-0.392235
-0.411107
-0.415444
-0.39756
-0.37435
-0.392235
-0.39756
-0.380662
-0.357452
-0.37435
-0.380662
-0.364753
-0.341543
-0.357452
-0.364753
-0.349831
-0.326621
-0.341543
-0.349831
-0.335896
-0.312687
-0.326621
-0.335896
-0.32295
-0.29974
-0.312687
-0.32295
-0.310991
-0.287781
-0.29974
-0.310991
-0.30002
-0.27681
-0.287781
-0.30002
-0.290036
-0.266826
-0.27681
-0.290036
-0.28104
-0.25783
-0.266826
-0.28104
-0.273031
-0.249822
-0.25783
-0.273031
-0.266011
-0.242801
-0.249822
-0.266011
-0.259978
-0.236768
-0.242801
-0.259978
-0.254932
-0.231722
-0.236768
-0.254932
-0.250875
-0.227665
-0.231722
-0.250875
-0.247804
-0.224595
-0.227665
-0.247804
-0.245722
-0.222512
-0.224595
-0.245722
-0.244627
-0.221417
-0.222512
-0.244627
-0.24452
-0.22131
-0.221417
-0.24452
-0.245401
-0.222191
-0.22131
-0.245401
-0.247269
-0.224059
-0.222191
-0.247269
-0.250125
-0.226915
-0.224059
-0.250125
-0.253968
-0.230758
-0.226915
-0.253968
-0.258799
-0.235589
-0.230758
-0.258799
-0.264618
-0.241408
-0.235589
-0.264618
-0.271425
-0.248215
-0.241408
-0.271425
-0.279219
-0.256009
-0.248215
-0.279219
-0.288
-0.264791
-0.256009
-0.288
-0.29777
-0.27456
-0.264791
-0.29777
-0.308527
-0.285317
-0.27456
-0.308527
-0.320272
-0.297062
-0.285317
-0.320272
-0.333004
-0.309794
-0.297062
-0.333004
-0.346724
-0.323514
-0.309794
-0.346724
-0.361432
-0.338222
-0.323514
-0.361432
-0.377127
-0.353917
-0.338222
-0.377127
-0.39381
-0.3706
-0.353917
-0.39381
-0.411481
-0.388271
-0.3706
-0.411481
-0.430139
-0.406929
-0.388271
-0.430139
-0.449785
-0.426575
-0.406929
-0.449785
-0.470419
-0.447209
-0.426575
-0.470419
-0.49204
-0.46883
-0.447209
-0.49204
-0.514649
-0.491439
-0.46883
-0.514649
-0.538245
-0.515036
-0.491439