# vtk DataFile Version 1.0
unstructured Grid
ASCII
DATASET UNSTRUCTURED_GRID
POINTS 23440 float 
0 0	 0.0
0.0222222 0	 0.0
0.0222222 0.0222222	 0.0
0 0.0222222	 0.0
0.0222222 0	 0.0
0.0444444 0	 0.0
0.0444444 0.0222222	 0.0
0.0222222 0.0222222	 0.0
0.0444444 0	 0.0
0.0666667 0	 0.0
0.0666667 0.0222222	 0.0
0.0444444 0.0222222	 0.0
0.0666667 0	 0.0
0.0888889 0	 0.0
0.0888889 0.0222222	 0.0
0.0666667 0.0222222	 0.0
0.0888889 0	 0.0
0.111111 0	 0.0
0.111111 0.0222222	 0.0
0.0888889 0.0222222	 0.0
0.111111 0	 0.0
0.133333 0	 0.0
0.133333 0.0222222	 0.0
0.111111 0.0222222	 0.0
0.133333 0	 0.0
0.155556 0	 0.0
0.155556 0.0222222	 0.0
0.133333 0.0222222	 0.0
0.155556 0	 0.0
0.177778 0	 0.0
0.177778 0.0222222	 0.0
0.155556 0.0222222	 0.0
0.177778 0	 0.0
0.2 0	 0.0
0.2 0.0222222	 0.0
0.177778 0.0222222	 0.0
0.2 0	 0.0
0.222222 0	 0.0
0.222222 0.0222222	 0.0
0.2 0.0222222	 0.0
0.222222 0	 0.0
0.244444 0	 0.0
0.244444 0.0222222	 0.0
0.222222 0.0222222	 0.0
0.244444 0	 0.0
0.266667 0	 0.0
0.266667 0.0222222	 0.0
0.244444 0.0222222	 0.0
0.266667 0	 0.0
0.288889 0	 0.0
0.288889 0.0222222	 0.0
0.266667 0.0222222	 0.0
0.288889 0	 0.0
0.311111 0	 0.0
0.311111 0.0222222	 0.0
0.288889 0.0222222	 0.0
0.311111 0	 0.0
0.333333 0	 0.0
0.333333 0.0222222	 0.0
0.311111 0.0222222	 0.0
0.333333 0	 0.0
0.355556 0	 0.0
0.355556 0.0222222	 0.0
0.333333 0.0222222	 0.0
0.355556 0	 0.0
0.377778 0	 0.0
0.377778 0.0222222	 0.0
0.355556 0.0222222	 0.0
0.377778 0	 0.0
0.4 0	 0.0
0.4 0.0222222	 0.0
0.377778 0.0222222	 0.0
0.4 0	 0.0
0.422222 0	 0.0
0.422222 0.0222222	 0.0
0.4 0.0222222	 0.0
0.422222 0	 0.0
0.444444 0	 0.0
0.444444 0.0222222	 0.0
0.422222 0.0222222	 0.0
0.444444 0	 0.0
0.466667 0	 0.0
0.466667 0.0222222	 0.0
0.444444 0.0222222	 0.0
0.466667 0	 0.0
0.488889 0	 0.0
0.488889 0.0222222	 0.0
0.466667 0.0222222	 0.0
0.488889 0	 0.0
0.511111 0	 0.0
0.511111 0.0222222	 0.0
0.488889 0.0222222	 0.0
0.511111 0	 0.0
0.533333 0	 0.0
0.533333 0.0222222	 0.0
0.511111 0.0222222	 0.0
0.533333 0	 0.0
0.555556 0	 0.0
0.555556 0.0222222	 0.0
0.533333 0.0222222	 0.0
0.555556 0	 0.0
0.577778 0	 0.0
0.577778 0.0222222	 0.0
0.555556 0.0222222	 0.0
0.577778 0	 0.0
0.6 0	 0.0
0.6 0.0222222	 0.0
0.577778 0.0222222	 0.0
0.6 0	 0.0
0.622222 0	 0.0
0.622222 0.0222222	 0.0
0.6 0.0222222	 0.0
0.622222 0	 0.0
0.644444 0	 0.0
0.644444 0.0222222	 0.0
0.622222 0.0222222	 0.0
0.644444 0	 0.0
0.666667 0	 0.0
0.666667 0.0222222	 0.0
0.644444 0.0222222	 0.0
0.666667 0	 0.0
0.688889 0	 0.0
0.688889 0.0222222	 0.0
0.666667 0.0222222	 0.0
0.688889 0	 0.0
0.711111 0	 0.0
0.711111 0.0222222	 0.0
0.688889 0.0222222	 0.0
0.711111 0	 0.0
0.733333 0	 0.0
0.733333 0.0222222	 0.0
0.711111 0.0222222	 0.0
0.733333 0	 0.0
0.755556 0	 0.0
0.755556 0.0222222	 0.0
0.733333 0.0222222	 0.0
0.755556 0	 0.0
0.777778 0	 0.0
0.777778 0.0222222	 0.0
0.755556 0.0222222	 0.0
0.777778 0	 0.0
0.8 0	 0.0
0.8 0.0222222	 0.0
0.777778 0.0222222	 0.0
0.8 0	 0.0
0.822222 0	 0.0
0.822222 0.0222222	 0.0
0.8 0.0222222	 0.0
0.822222 0	 0.0
0.844444 0	 0.0
0.844444 0.0222222	 0.0
0.822222 0.0222222	 0.0
0.844444 0	 0.0
0.866667 0	 0.0
0.866667 0.0222222	 0.0
0.844444 0.0222222	 0.0
0.866667 0	 0.0
0.888889 0	 0.0
0.888889 0.0222222	 0.0
0.866667 0.0222222	 0.0
0.888889 0	 0.0
0.911111 0	 0.0
0.911111 0.0222222	 0.0
0.888889 0.0222222	 0.0
0.911111 0	 0.0
0.933333 0	 0.0
0.933333 0.0222222	 0.0
0.911111 0.0222222	 0.0
0.933333 0	 0.0
0.955556 0	 0.0
0.955556 0.0222222	 0.0
0.933333 0.0222222	 0.0
0.955556 0	 0.0
0.977778 0	 0.0
0.977778 0.0222222	 0.0
0.955556 0.0222222	 0.0
0.977778 0	 0.0
1 0	 0.0
1 0.0222222	 0.0
0.977778 0.0222222	 0.0
1 0	 0.0
1.02222 0	 0.0
1.02222 0.0222222	 0.0
1 0.0222222	 0.0
1.02222 0	 0.0
1.04444 0	 0.0
1.04444 0.0222222	 0.0
1.02222 0.0222222	 0.0
1.04444 0	 0.0
1.06667 0	 0.0
1.06667 0.0222222	 0.0
1.04444 0.0222222	 0.0
1.06667 0	 0.0
1.08889 0	 0.0
1.08889 0.0222222	 0.0
1.06667 0.0222222	 0.0
1.08889 0	 0.0
1.11111 0	 0.0
1.11111 0.0222222	 0.0
1.08889 0.0222222	 0.0
1.11111 0	 0.0
1.13333 0	 0.0
1.13333 0.0222222	 0.0
1.11111 0.0222222	 0.0
1.13333 0	 0.0
1.15556 0	 0.0
1.15556 0.0222222	 0.0
1.13333 0.0222222	 0.0
1.15556 0	 0.0
1.17778 0	 0.0
1.17778 0.0222222	 0.0
1.15556 0.0222222	 0.0
1.17778 0	 0.0
1.2 0	 0.0
1.2 0.0222222	 0.0
1.17778 0.0222222	 0.0
1.2 0	 0.0
1.22222 0	 0.0
1.22222 0.0222222	 0.0
1.2 0.0222222	 0.0
1.22222 0	 0.0
1.24444 0	 0.0
1.24444 0.0222222	 0.0
1.22222 0.0222222	 0.0
1.24444 0	 0.0
1.26667 0	 0.0
1.26667 0.0222222	 0.0
1.24444 0.0222222	 0.0
1.26667 0	 0.0
1.28889 0	 0.0
1.28889 0.0222222	 0.0
1.26667 0.0222222	 0.0
1.28889 0	 0.0
1.31111 0	 0.0
1.31111 0.0222222	 0.0
1.28889 0.0222222	 0.0
1.31111 0	 0.0
1.33333 0	 0.0
1.33333 0.0222222	 0.0
1.31111 0.0222222	 0.0
1.33333 0	 0.0
1.35556 0	 0.0
1.35556 0.0222222	 0.0
1.33333 0.0222222	 0.0
1.35556 0	 0.0
1.37778 0	 0.0
1.37778 0.0222222	 0.0
1.35556 0.0222222	 0.0
1.37778 0	 0.0
1.4 0	 0.0
1.4 0.0222222	 0.0
1.37778 0.0222222	 0.0
1.4 0	 0.0
1.42222 0	 0.0
1.42222 0.0222222	 0.0
1.4 0.0222222	 0.0
1.42222 0	 0.0
1.44444 0	 0.0
1.44444 0.0222222	 0.0
1.42222 0.0222222	 0.0
1.44444 0	 0.0
1.46667 0	 0.0
1.46667 0.0222222	 0.0
1.44444 0.0222222	 0.0
1.46667 0	 0.0
1.48889 0	 0.0
1.48889 0.0222222	 0.0
1.46667 0.0222222	 0.0
1.48889 0	 0.0
1.51111 0	 0.0
1.51111 0.0222222	 0.0
1.48889 0.0222222	 0.0
1.51111 0	 0.0
1.53333 0	 0.0
1.53333 0.0222222	 0.0
1.51111 0.0222222	 0.0
1.53333 0	 0.0
1.55556 0	 0.0
1.55556 0.0222222	 0.0
1.53333 0.0222222	 0.0
1.55556 0	 0.0
1.57778 0	 0.0
1.57778 0.0222222	 0.0
1.55556 0.0222222	 0.0
1.57778 0	 0.0
1.6 0	 0.0
1.6 0.0222222	 0.0
1.57778 0.0222222	 0.0
1.6 0	 0.0
1.62222 0	 0.0
1.62222 0.0222222	 0.0
1.6 0.0222222	 0.0
1.62222 0	 0.0
1.64444 0	 0.0
1.64444 0.0222222	 0.0
1.62222 0.0222222	 0.0
1.64444 0	 0.0
1.66667 0	 0.0
1.66667 0.0222222	 0.0
1.64444 0.0222222	 0.0
1.66667 0	 0.0
1.68889 0	 0.0
1.68889 0.0222222	 0.0
1.66667 0.0222222	 0.0
1.68889 0	 0.0
1.71111 0	 0.0
1.71111 0.0222222	 0.0
1.68889 0.0222222	 0.0
1.71111 0	 0.0
1.73333 0	 0.0
1.73333 0.0222222	 0.0
1.71111 0.0222222	 0.0
1.73333 0	 0.0
1.75556 0	 0.0
1.75556 0.0222222	 0.0
1.73333 0.0222222	 0.0
1.75556 0	 0.0
1.77778 0	 0.0
1.77778 0.0222222	 0.0
1.75556 0.0222222	 0.0
1.77778 0	 0.0
1.8 0	 0.0
1.8 0.0222222	 0.0
1.77778 0.0222222	 0.0
1.8 0	 0.0
1.82222 0	 0.0
1.82222 0.0222222	 0.0
1.8 0.0222222	 0.0
1.82222 0	 0.0
1.84444 0	 0.0
1.84444 0.0222222	 0.0
1.82222 0.0222222	 0.0
1.84444 0	 0.0
1.86667 0	 0.0
1.86667 0.0222222	 0.0
1.84444 0.0222222	 0.0
1.86667 0	 0.0
1.88889 0	 0.0
1.88889 0.0222222	 0.0
1.86667 0.0222222	 0.0
1.88889 0	 0.0
1.91111 0	 0.0
1.91111 0.0222222	 0.0
1.88889 0.0222222	 0.0
1.91111 0	 0.0
1.93333 0	 0.0
1.93333 0.0222222	 0.0
1.91111 0.0222222	 0.0
1.93333 0	 0.0
1.95556 0	 0.0
1.95556 0.0222222	 0.0
1.93333 0.0222222	 0.0
1.95556 0	 0.0
1.97778 0	 0.0
1.97778 0.0222222	 0.0
1.95556 0.0222222	 0.0
1.97778 0	 0.0
2 0	 0.0
2 0.0222222	 0.0
1.97778 0.0222222	 0.0
2 0	 0.0
2.02222 0	 0.0
2.02222 0.0222222	 0.0
2 0.0222222	 0.0
2.02222 0	 0.0
2.04444 0	 0.0
2.04444 0.0222222	 0.0
2.02222 0.0222222	 0.0
2.04444 0	 0.0
2.06667 0	 0.0
2.06667 0.0222222	 0.0
2.04444 0.0222222	 0.0
2.06667 0	 0.0
2.08889 0	 0.0
2.08889 0.0222222	 0.0
2.06667 0.0222222	 0.0
2.08889 0	 0.0
2.11111 0	 0.0
2.11111 0.0222222	 0.0
2.08889 0.0222222	 0.0
2.11111 0	 0.0
2.13333 0	 0.0
2.13333 0.0222222	 0.0
2.11111 0.0222222	 0.0
2.13333 0	 0.0
2.15556 0	 0.0
2.15556 0.0222222	 0.0
2.13333 0.0222222	 0.0
2.15556 0	 0.0
2.17778 0	 0.0
2.17778 0.0222222	 0.0
2.15556 0.0222222	 0.0
2.17778 0	 0.0
2.2 0	 0.0
2.2 0.0222222	 0.0
2.17778 0.0222222	 0.0
2.2 0	 0.0
2.22222 0	 0.0
2.22222 0.0222222	 0.0
2.2 0.0222222	 0.0
2.22222 0	 0.0
2.24444 0	 0.0
2.24444 0.0222222	 0.0
2.22222 0.0222222	 0.0
2.24444 0	 0.0
2.26667 0	 0.0
2.26667 0.0222222	 0.0
2.24444 0.0222222	 0.0
2.26667 0	 0.0
2.28889 0	 0.0
2.28889 0.0222222	 0.0
2.26667 0.0222222	 0.0
2.28889 0	 0.0
2.31111 0	 0.0
2.31111 0.0222222	 0.0
2.28889 0.0222222	 0.0
2.31111 0	 0.0
2.33333 0	 0.0
2.33333 0.0222222	 0.0
2.31111 0.0222222	 0.0
2.33333 0	 0.0
2.35556 0	 0.0
2.35556 0.0222222	 0.0
2.33333 0.0222222	 0.0
2.35556 0	 0.0
2.37778 0	 0.0
2.37778 0.0222222	 0.0
2.35556 0.0222222	 0.0
2.37778 0	 0.0
2.4 0	 0.0
2.4 0.0222222	 0.0
2.37778 0.0222222	 0.0
2.4 0	 0.0
2.42222 0	 0.0
2.42222 0.0222222	 0.0
2.4 0.0222222	 0.0
2.42222 0	 0.0
2.44444 0	 0.0
2.44444 0.0222222	 0.0
2.42222 0.0222222	 0.0
2.44444 0	 0.0
2.46667 0	 0.0
2.46667 0.0222222	 0.0
2.44444 0.0222222	 0.0
2.46667 0	 0.0
2.48889 0	 0.0
2.48889 0.0222222	 0.0
2.46667 0.0222222	 0.0
2.48889 0	 0.0
2.51111 0	 0.0
2.51111 0.0222222	 0.0
2.48889 0.0222222	 0.0
2.51111 0	 0.0
2.53333 0	 0.0
2.53333 0.0222222	 0.0
2.51111 0.0222222	 0.0
2.53333 0	 0.0
2.55556 0	 0.0
2.55556 0.0222222	 0.0
2.53333 0.0222222	 0.0
2.55556 0	 0.0
2.57778 0	 0.0
2.57778 0.0222222	 0.0
2.55556 0.0222222	 0.0
2.57778 0	 0.0
2.6 0	 0.0
2.6 0.0222222	 0.0
2.57778 0.0222222	 0.0
2.6 0	 0.0
2.62222 0	 0.0
2.62222 0.0222222	 0.0
2.6 0.0222222	 0.0
2.62222 0	 0.0
2.64444 0	 0.0
2.64444 0.0222222	 0.0
2.62222 0.0222222	 0.0
2.64444 0	 0.0
2.66667 0	 0.0
2.66667 0.0222222	 0.0
2.64444 0.0222222	 0.0
2.66667 0	 0.0
2.68889 0	 0.0
2.68889 0.0222222	 0.0
2.66667 0.0222222	 0.0
2.68889 0	 0.0
2.71111 0	 0.0
2.71111 0.0222222	 0.0
2.68889 0.0222222	 0.0
2.71111 0	 0.0
2.73333 0	 0.0
2.73333 0.0222222	 0.0
2.71111 0.0222222	 0.0
2.73333 0	 0.0
2.75556 0	 0.0
2.75556 0.0222222	 0.0
2.73333 0.0222222	 0.0
2.75556 0	 0.0
2.77778 0	 0.0
2.77778 0.0222222	 0.0
2.75556 0.0222222	 0.0
2.77778 0	 0.0
2.8 0	 0.0
2.8 0.0222222	 0.0
2.77778 0.0222222	 0.0
2.8 0	 0.0
2.82222 0	 0.0
2.82222 0.0222222	 0.0
2.8 0.0222222	 0.0
2.82222 0	 0.0
2.84444 0	 0.0
2.84444 0.0222222	 0.0
2.82222 0.0222222	 0.0
2.84444 0	 0.0
2.86667 0	 0.0
2.86667 0.0222222	 0.0
2.84444 0.0222222	 0.0
2.86667 0	 0.0
2.88889 0	 0.0
2.88889 0.0222222	 0.0
2.86667 0.0222222	 0.0
2.88889 0	 0.0
2.91111 0	 0.0
2.91111 0.0222222	 0.0
2.88889 0.0222222	 0.0
2.91111 0	 0.0
[...]
POINT_DATA 23440
SCALARS levelset_first float
LOOKUP_TABLE default
-4.43745
-4.34776
-4.32158
-4.41127
-4.34776
-4.25905
-4.23288
-4.32158
-4.25905
-4.17134
-4.14516
-4.23288
-4.17134
-4.08461
-4.05844
-4.14516
-4.08461
-3.99887
-3.9727
-4.05844
-3.99887
-3.91412
-3.88794
-3.9727
-3.91412
-3.83035
-3.80418
-3.88794
-3.83035
-3.74758
-3.7214
-3.80418
-3.74758
-3.66579
-3.63961
-3.7214
-3.66579
-3.58498
-3.55881
-3.63961
-3.58498
-3.50517
-3.479
-3.55881
-3.50517
-3.42634
-3.40017
-3.479
-3.42634
-3.34851
-3.32233
-3.40017
-3.34851
-3.27165
-3.24548
-3.32233
-3.27165
-3.19579
-3.16962
-3.24548
-3.19579
-3.12092
-3.09474
-3.16962
-3.12092
-3.04703
-3.02085
-3.09474
-3.04703
-2.97413
-2.94795
-3.02085
-2.97413
-2.90221
-2.87604
-2.94795
-2.90221
-2.83129
-2.80512
-2.87604
-2.83129
-2.76135
-2.73518
-2.80512
-2.76135
-2.6924
-2.66623
-2.73518
-2.6924
-2.62444
-2.59827
-2.66623
-2.62444
-2.55746
-2.53129
-2.59827
-2.55746
-2.49148
-2.46531
-2.53129
-2.49148
-2.42648
-2.40031
-2.46531
-2.42648
-2.36247
-2.33629
-2.40031
-2.36247
-2.29944
-2.27327
-2.33629
-2.29944
-2.23741
-2.21123
-2.27327
-2.23741
-2.17636
-2.15019
-2.21123
-2.17636
-2.1163
-2.09012
-2.15019
-2.1163
-2.05722
-2.03105
-2.09012
-2.05722
-1.99914
-1.97297
-2.03105
-1.99914
-1.94204
-1.91587
-1.97297
-1.94204
-1.88593
-1.85976
-1.91587
-1.88593
-1.83081
-1.80463
-1.85976
-1.83081
-1.77667
-1.7505
-1.80463
-1.77667
-1.72353
-1.69735
-1.7505
-1.72353
-1.67137
-1.64519
-1.69735
-1.67137
-1.62019
-1.59402
-1.64519
-1.62019
-1.57001
-1.54384
-1.59402
-1.57001
-1.52081
-1.49464
-1.54384
-1.52081
-1.4726
-1.44643
-1.49464
-1.4726
-1.42538
-1.39921
-1.44643
-1.42538
-1.37915
-1.35298
-1.39921
-1.37915
-1.3339
-1.30773
-1.35298
-1.3339
-1.28964
-1.26347
-1.30773
-1.28964
-1.24637
-1.2202
-1.26347
-1.24637
-1.20409
-1.17792
-1.2202
-1.20409
-1.16279
-1.13662
-1.17792
-1.16279
-1.12249
-1.09631
-1.13662
-1.12249
-1.08317
-1.05699
-1.09631
-1.08317
-1.04483
-1.01866
-1.05699
-1.04483
-1.00749
-0.981315
-1.01866
-1.00749
-0.971131
-0.944958
-0.981315
-0.971131
-0.935761
-0.909589
-0.944958
-0.935761
-0.901379
-0.875207
-0.909589
-0.901379
-0.867985
-0.841812
-0.875207
-0.867985
-0.835579
-0.809406
-0.841812
-0.835579
-0.80416
-0.777987
-0.809406
-0.80416
-0.773728
-0.747555
-0.777987
-0.773728
-0.744285
-0.718112
-0.747555
-0.744285
-0.715829
-0.689656
-0.718112
-0.715829
-0.68836
-0.662187
-0.689656
-0.68836
-0.66188
-0.635707
-0.662187
-0.66188
-0.636387
-0.610214
-0.635707
-0.636387
-0.611881
-0.585708
-0.610214
-0.611881
-0.588363
-0.562191
-0.585708
-0.588363
-0.565833
-0.53966
-0.562191
-0.565833
-0.544291
-0.518118
-0.53966
-0.544291
-0.523736
-0.497563
-0.518118
-0.523736
-0.504169
-0.477996
-0.497563
-0.504169
-0.48559
-0.459417
-0.477996
-0.48559
-0.467998
-0.441825
-0.459417
-0.467998
-0.451394
-0.425221
-0.441825
-0.451394
-0.435777
-0.409604
-0.425221
-0.435777
-0.421148
-0.394975
-0.409604
-0.421148
-0.407507
-0.381334
-0.394975
-0.407507
-0.394853
-0.368681
-0.381334
-0.394853
-0.383188
-0.357015
-0.368681
-0.383188
-0.372509
-0.346336
-0.357015
-0.372509
-0.362819
-0.336646
-0.346336
-0.362819
-0.354116
-0.327943
-0.336646
-0.354116
-0.346401
-0.320228
-0.327943
-0.346401
-0.339673
-0.3135
-0.320228
-0.339673
-0.333933
-0.30776
-0.3135
-0.333933
-0.329181
-0.303008
-0.30776
-0.329181
-0.325416
-0.299243
-0.303008
-0.325416
-0.322639
-0.296466
-0.299243
-0.322639
-0.32085
-0.294677
-0.296466
-0.32085
-0.320048
-0.293875
-0.294677
-0.320048
-0.320234
-0.294061
-0.293875
-0.320234
-0.321408
-0.295235
-0.294061
-0.321408
-0.323569
-0.297396
-0.295235
-0.323569
-0.326718
-0.300545
-0.297396
-0.326718
-0.330854
-0.304682
-0.300545
-0.330854
-0.335979
-0.309806
-0.304682
-0.335979
-0.34209
-0.315918
-0.309806
-0.34209
-0.34919
-0.323017
-0.315918
-0.34919
-0.357277
-0.331104
-0.323017
-0.357277
-0.366352
-0.340179
-0.331104
-0.366352
-0.376415
-0.350242
-0.340179
-0.376415
-0.387465
-0.361292
-0.350242
-0.387465
-0.399503
-0.37333
-0.361292
-0.399503
-0.412528
-0.386355
-0.37333
-0.412528
-0.426541
-0.400368
-0.386355
-0.426541
-0.441542
-0.415369
-0.400368
-0.441542
-0.45753
-0.431358
-0.415369
-0.45753
-0.474506
-0.448334
-0.431358
-0.474506
-0.49247
-0.466297
-0.448334
-0.49247
-0.511422
-0.485249
-0.466297
-0.511422
-0.531361
-0.505188
-0.485249
-0.531361
-0.552287
-0.526115
-0.505188
-0.552287
-0.574202
-0.548029
-0.526115
-0.574202
-0.597104
-0.570931
-0.548029
-0.597104
-0.620993
-0.594821
-0.570931
-0.620993
-0.645871
-0.619698
-0.594821
-0.645871
-0.671736
-0.645563
-0.619698
-0.671736
-0.698588
-0.672415
-0.645563
-0.698588
-0.726429
-0.700256
-0.672415
-0.726429
-0.755257
-0.729084
-0.700256
-0.755257
-0.785072
-0.758899
-0.729084
-0.785072
-0.815875
-0.789703
-0.758899
-0.815875
-0.847666
-0.821493
-0.789703
-0.847666
-0.880445
-0.854272
-0.821493
-0.880445
-0.914211
-0.888038
-0.854272
-0.914211
-0.948965
-0.922792
-0.888038
-0.948965
-0.984706
-0.958534
-0.922792
-0.984706
-1.02144
-0.995263
-0.958534
-1.02144
-1.05915
-1.03298
-0.995263
-1.05915
-1.09786
-1.07168
-1.03298
-1.09786
-1.13755
-1.11138
-1.07168
-1.13755
-1.17823
-1.15206
-1.11138
-1.17823
-1.2199
-1.19372
-1.15206
-1.2199
-1.26255
-1.23638
-1.19372
-4.41127
-4.32158
-4.2964
-4.38609
-4.32158
-4.23288
-4.20769
-4.2964
-4.23288
-4.14516
-4.11998
-4.20769
-4.14516
-4.05844
-4.03325
-4.11998
-4.05844
-3.9727
-3.94751
-4.03325
-3.9727
-3.88794
-3.86276
-3.94751
-3.88794
-3.80418
-3.77899
-3.86276
-3.80418
-3.7214
-3.69622
-3.77899
-3.7214
-3.63961
-3.61443
-3.69622
-3.63961
-3.55881
-3.53363
-3.61443
-3.55881
-3.479
-3.45381
-3.53363
-3.479
-3.40017
-3.37499
-3.45381
-3.40017
-3.32233
-3.29715
-3.37499
-3.32233
-3.24548
-3.2203
-3.29715
-3.24548
-3.16962
-3.14443
-3.2203
-3.16962
-3.09474
-3.06956
-3.14443
-3.09474
-3.02085
-2.99567
-3.06956
-3.02085
-2.94795
-2.92277
-2.99567
-2.94795
-2.87604
-2.85086
-2.92277
-2.87604
-2.80512
-2.77993
-2.85086
-2.80512
-2.73518
-2.70999
-2.77993
-2.73518
-2.66623
-2.64104
-2.70999
-2.66623
-2.59827
-2.57308
-2.64104
-2.59827
-2.53129
-2.50611
-2.57308
-2.53129
-2.46531
-2.44012
-2.50611
-2.46531
-2.40031
-2.37512
-2.44012
-2.40031
-2.33629
-2.31111
-2.37512
-2.33629
-2.27327
-2.24809
-2.31111
-2.27327
-2.21123
-2.18605
-2.24809
-2.21123
-2.15019
-2.125
-2.18605
-2.15019
-2.09012
-2.06494
-2.125
-2.09012
-2.03105
-2.00587
-2.06494
-2.03105
-1.97297
-1.94778
-2.00587
-1.97297
-1.91587
-1.89068
-1.94778
-1.91587
-1.85976
-1.83457
-1.89068
-1.85976
-1.80463
-1.77945
-1.83457
-1.80463
-1.7505
-1.72531
-1.77945
-1.7505
-1.69735
-1.67217
-1.72531
-1.69735
-1.64519
-1.62001
-1.67217
-1.64519
-1.59402
-1.56884
-1.62001
-1.59402
-1.54384
-1.51865
-1.56884
-1.54384
-1.49464
-1.46945
-1.51865
-1.49464
-1.44643
-1.42125
-1.46945
-1.44643
-1.39921
-1.37402
-1.42125
-1.39921
-1.35298
-1.32779
-1.37402
-1.35298
-1.30773
-1.28254
-1.32779
-1.30773
-1.26347
-1.23829
-1.28254
-1.26347
-1.2202
-1.19501
-1.23829
-1.2202
-1.17792
-1.15273
-1.19501
-1.17792
-1.13662
-1.11144
-1.15273
-1.13662
-1.09631
-1.07113
-1.11144
-1.09631
-1.05699
-1.03181
-1.07113
-1.05699
-1.01866
-0.993475
-1.03181
-1.01866
-0.981315
-0.95613
-0.993475
-0.981315
-0.944958
-0.919773
-0.95613
-0.944958
-0.909589
-0.884403
-0.919773
-0.909589
-0.875207
-0.850021
-0.884403
-0.875207
-0.841812
-0.816627
-0.850021
-0.841812
-0.809406
-0.784221
-0.816627
-0.809406
-0.777987
-0.752802
-0.784221
-0.777987
-0.747555
-0.72237
-0.752802
-0.747555
-0.718112
-0.692927
-0.72237
-0.718112
-0.689656
-0.664471
-0.692927
-0.689656
-0.662187
-0.637002
-0.664471
-0.662187
-0.635707
-0.610522
-0.637002
-0.635707
-0.610214
-0.585028
-0.610522
-0.610214
-0.585708
-0.560523
-0.585028
-0.585708
-0.562191
-0.537005
-0.560523
-0.562191
-0.53966
-0.514475
-0.537005
-0.53966
-0.518118
-0.492933
-0.514475
-0.518118
-0.497563
-0.472378
-0.492933
-0.497563
-0.477996
-0.452811
-0.472378
-0.477996
-0.459417
-0.434231
-0.452811
-0.459417
-0.441825
-0.41664
-0.434231
-0.441825
-0.425221
-0.400036
-0.41664
-0.425221
-0.409604
-0.384419
-0.400036
-0.409604
-0.394975
-0.36979
-0.384419
-0.394975
-0.381334
-0.356149
-0.36979
-0.381334
-0.368681
-0.343495
-0.356149
-0.368681
-0.357015
-0.33183
-0.343495
-0.357015
-0.346336
-0.321151
-0.33183
-0.346336
-0.336646
-0.311461
-0.321151
-0.336646
-0.327943
-0.302758
-0.311461
-0.327943
-0.320228
-0.295043
-0.302758
-0.320228
-0.3135
-0.288315
-0.295043
-0.3135
-0.30776
-0.282575
-0.288315
-0.30776
-0.303008
-0.277823
-0.282575
-0.303008
-0.299243
-0.274058
-0.277823
-0.299243
-0.296466
-0.271281
-0.274058
-0.296466
-0.294677
-0.269492
-0.271281
-0.294677
-0.293875
-0.26869
-0.269492
-0.293875
-0.294061
-0.268876
-0.26869
-0.294061
-0.295235
-0.27005
-0.268876
-0.295235
-0.297396
-0.272211
-0.27005
-0.297396
-0.300545
-0.27536
-0.272211
-0.300545
-0.304682
-0.279496
-0.27536
-0.304682
-0.309806
-0.284621
-0.279496
-0.309806
-0.315918
-0.290732
-0.284621
-0.315918
-0.323017
-0.297832
-0.290732
-0.323017
-0.331104
-0.305919
-0.297832
-0.331104
-0.340179
-0.314994
-0.305919
-0.340179
-0.350242
-0.325057
-0.314994
-0.350242
-0.361292
-0.336107
-0.325057
-0.361292
-0.37333
-0.348145
-0.336107
-0.37333
-0.386355
-0.36117
-0.348145
-0.386355
-0.400368
-0.375183
-0.36117
-0.400368
-0.415369
-0.390184
-0.375183
-0.415369
-0.431358
-0.406172
-0.390184
-0.431358
-0.448334
-0.423148
-0.406172
-0.448334
-0.466297
-0.441112
-0.423148
-0.466297
-0.485249
-0.460064
-0.441112
-0.485249
-0.505188
-0.480003
-0.460064
-0.505188
-0.526115
-0.500929
-0.480003
-0.526115
-0.548029
-0.522844
-0.500929
-0.548029
-0.570931
-0.545746
-0.522844
-0.570931
-0.594821
-0.569635
-0.545746
-0.594821
-0.619698
-0.594513
-0.569635
-0.619698
-0.645563
-0.620378
-0.594513
-0.645563
-0.672415
-0.64723
-0.620378
-0.672415
-0.700256
-0.675071
-0.64723
-0.700256
-0.729084
-0.703899
-0.675071
-0.729084
-0.758899
-0.733714
-0.703899
-0.758899
-0.789703
-0.764517
-0.733714
-0.789703
-0.821493
-0.796308
-0.764517
-0.821493
-0.854272
-0.829087
-0.796308
-0.854272
-0.888038
-0.862853
-0.829087
-0.888038
-0.922792
-0.897607
-0.862853
-0.922792
-0.958534
-0.933348
-0.897607
-0.958534
-0.995263
-0.970078
-0.933348
-0.995263
-1.03298
-1.00779
-0.970078
-1.03298
-1.07168
-1.0465
-1.00779
-1.07168
-1.11138
-1.08619
-1.0465
-1.11138
-1.15206
-1.12687
-1.08619
-1.15206
-1.19372
-1.16854
-1.12687
-1.19372
-1.23638
-1.21119
-1.16854
-4.38609
-4.2964
-4.2722
-4.36189
-4.2964
-4.20769
-4.1835
-4.2722
-4.20769
-4.11998
-4.09578
-4.1835
-4.11998
-4.03325
-4.00905
-4.09578
-4.03325
-3.94751
-3.92331
-4.00905
-3.94751
-3.86276
-3.83856
-3.92331
-3.86276
-3.77899
-3.7548
-3.83856
-3.77899
-3.69622
-3.67202
-3.7548
-3.69622
-3.61443
-3.59023
-3.67202
-3.61443
-3.53363
-3.50943
-3.59023
-3.53363
-3.45381
-3.42962
-3.50943
-3.45381
-3.37499
-3.35079
-3.42962
-3.37499
-3.29715
-3.27295
-3.35079
-3.29715
-3.2203
-3.1961
-3.27295
-3.2203
-3.14443
-3.12024
-3.1961
-3.14443
-3.06956
-3.04536
-3.12024
-3.06956
-2.99567
-2.97147
-3.04536
-2.99567
-2.92277
-2.89857
-2.97147
-2.92277
-2.85086
-2.82666
-2.89857
-2.85086
-2.77993
-2.75573
-2.82666
-2.77993
-2.70999
-2.6858
-2.75573
-2.70999
-2.64104
-2.61685
-2.6858
-2.64104
-2.57308
-2.54888
-2.61685
-2.57308
-2.50611
-2.48191
-2.54888
-2.50611
-2.44012
-2.41592
-2.48191
-2.44012
-2.37512
-2.35092
-2.41592
-2.37512
-2.31111
-2.28691
-2.35092
-2.31111
-2.24809
-2.22389
-2.28691
-2.24809
-2.18605
-2.16185
-2.22389
-2.18605
-2.125
-2.1008
-2.16185
-2.125
-2.06494
-2.04074
-2.1008
-2.06494
-2.00587
-1.98167
-2.04074
-2.00587
-1.94778
-1.92358
-1.98167
-1.94778
-1.89068
-1.86649
-1.92358
-1.89068
-1.83457
-1.81037
-1.86649
-1.83457
-1.77945
-1.75525
-1.81037
-1.77945
-1.72531
-1.70112
-1.75525
-1.72531
-1.67217
-1.64797
-1.70112
-1.67217
-1.62001
-1.59581
-1.64797
-1.62001
-1.56884
-1.54464
-1.59581
-1.56884
-1.51865
-1.49445
-1.54464
-1.51865
-1.46945
-1.44526
-1.49445
-1.46945
-1.42125
-1.39705
-1.44526
-1.42125
-1.37402
-1.34983
-1.39705
-1.37402
-1.32779
-1.30359
-1.34983
-1.32779
-1.28254
-1.25835
-1.30359
-1.28254
-1.23829
-1.21409
-1.25835
-1.23829
-1.19501
-1.17082
-1.21409
-1.19501
-1.15273
-1.12853
-1.17082
-1.15273
-1.11144
-1.08724
-1.12853
-1.11144
-1.07113
-1.04693
-1.08724
-1.07113
-1.03181
-1.00761
-1.04693
-1.03181
-0.993475
-0.969278
-1.00761
-0.993475
-0.95613
-0.931933
-0.969278
-0.95613
-0.919773
-0.895575
-0.931933
-0.919773
-0.884403
-0.860206
-0.895575
-0.884403
-0.850021
-0.825824
-0.860206
-0.850021
-0.816627
-0.79243
-0.825824
-0.816627
-0.784221
-0.760023
-0.79243
-0.784221
-0.752802
-0.728604
-0.760023
-0.752802
-0.72237
-0.698173
-0.728604
-0.72237
-0.692927
-0.668729
-0.698173
-0.692927
-0.664471
-0.640273
-0.668729
-0.664471
-0.637002
-0.612805
-0.640273
-0.637002
-0.610522
-0.586324
-0.612805
-0.610522
-0.585028
-0.560831
-0.586324
-0.585028
-0.560523
-0.536326
-0.560831
-0.560523
-0.537005
-0.512808
-0.536326
-0.537005
-0.514475
-0.490278
-0.512808
-0.514475
-0.492933
-0.468735
-0.490278
-0.492933
-0.472378
-0.448181
-0.468735
-0.472378
-0.452811
-0.428613
-0.448181
-0.452811
-0.434231
-0.410034
-0.428613
-0.434231
-0.41664
-0.392442
-0.410034
-0.41664
-0.400036
-0.375838
-0.392442
-0.400036
-0.384419
-0.360221
-0.375838
-0.384419
-0.36979
-0.345593
-0.360221
-0.36979
-0.356149
-0.331951
-0.345593
-0.356149
-0.343495
-0.319298
-0.331951
-0.343495
-0.33183
-0.307632
-0.319298
-0.33183
-0.321151
-0.296954
-0.307632
-0.321151
-0.311461
-0.287263
-0.296954
-0.311461
-0.302758
-0.27856
-0.287263
-0.302758
-0.295043
-0.270845
-0.27856
-0.295043
-0.288315
-0.264117
-0.270845
-0.288315
-0.282575
-0.258377
-0.264117
-0.282575
-0.277823
-0.253625
-0.258377
-0.277823
-0.274058
-0.24986
-0.253625
-0.274058
-0.271281
-0.247083
-0.24986
-0.271281
-0.269492
-0.245294
-0.247083
-0.269492
-0.26869
-0.244492
-0.245294
-0.26869
-0.268876
-0.244678
-0.244492
-0.268876
-0.27005
-0.245852
-0.244678
-0.27005
-0.272211
-0.248013
-0.245852
-0.272211
-0.27536
-0.251162
-0.248013
-0.27536
-0.279496
-0.255299
-0.251162
-0.279496
-0.284621
-0.260423
-0.255299
-0.284621
-0.290732
-0.266535
-0.260423
-0.290732
-0.297832
-0.273634
-0.266535
-0.297832
-0.305919
-0.281722
-0.273634
-0.305919
-0.314994
-0.290797
-0.281722
-0.314994
-0.325057
-0.300859
-0.290797
-0.325057
-0.336107
-0.311909
-0.300859
-0.336107
-0.348145
-0.323947
-0.311909
-0.348145
-0.36117
-0.336972
-0.323947
-0.36117
-0.375183
-0.350986
-0.336972
-0.375183
-0.390184
-0.365986
-0.350986
-0.390184
-0.406172
-0.381975
-0.365986
-0.406172
-0.423148
-0.398951
-0.381975
-0.423148
-0.441112
-0.416915
-0.398951
-0.441112
-0.460064
-0.435866
-0.416915
-0.460064
-0.480003
-0.455805
-0.435866
-0.480003
-0.500929
-0.476732
-0.455805
-0.500929
-0.522844
-0.498646
-0.476732
-0.522844
-0.545746
-0.521548
-0.498646
-0.545746
-0.569635
-0.545438
-0.521548
-0.569635
-0.594513
-0.570315
-0.545438
-0.594513
-0.620378
-0.59618
-0.570315
-0.620378
-0.64723
-0.623033
-0.59618
-0.64723
-0.675071
-0.650873
-0.623033
-0.675071
-0.703899
-0.679701
-0.650873
-0.703899
-0.733714
-0.709517
-0.679701
-0.733714
-0.764517
-0.74032
-0.709517
-0.764517
-0.796308
-0.772111
-0.74032
-0.796308
-0.829087
-0.804889
-0.772111
-0.829087
-0.862853
-0.838656
-0.804889
-0.862853
-0.897607
-0.873409
-0.838656
-0.897607
-0.933348
-0.909151
-0.873409
-0.933348
-0.970078
-0.94588
-0.909151
-0.970078
-1.00779
-0.983597
-0.94588
-1.00779
-1.0465
-1.0223
-0.983597
-1.0465
-1.08619
-1.06199
-1.0223
-1.08619
-1.12687
-1.10267
-1.06199
-1.12687
-1.16854
-1.14434
-1.10267
-1.16854
-1.21119
-1.187
-1.14434
-4.36189
-4.2722
-4.24899
-4.33868
-4.2722
-4.1835
-4.16029
-4.24899
-4.1835
-4.09578
-4.07257
-4.16029
-4.09578
-4.00905
-3.98584
-4.07257
-4.00905
-3.92331
-3.9001
-3.98584
-3.92331
-3.83856
-3.81535
-3.9001
-3.83856
-3.7548
-3.73159
-3.81535
-3.7548
-3.67202
-3.64881
-3.73159
-3.67202
-3.59023
-3.56702
-3.64881
-3.59023
-3.50943
-3.48622
-3.56702
-3.50943
-3.42962
-3.40641
-3.48622
-3.42962
-3.35079
-3.32758
-3.40641
-3.35079
-3.27295
-3.24974
-3.32758
-3.27295
-3.1961
-3.17289
-3.24974
-3.1961
-3.12024
-3.09703
-3.17289
-3.12024
-3.04536
-3.02215
-3.09703
-3.04536
-2.97147
-2.94826
-3.02215
-2.97147
-2.89857
-2.87536
-2.94826
-2.89857
-2.82666
-2.80345
-2.87536
-2.82666
-2.75573
-2.73252
-2.80345
-2.75573
-2.6858
-2.66259
-2.73252
-2.6858
-2.61685
-2.59364
-2.66259
-2.61685
-2.54888
-2.52567
-2.59364
-2.54888
-2.48191
-2.4587
-2.52567
-2.48191
-2.41592
-2.39271
-2.4587
-2.41592
-2.35092
-2.32771
-2.39271
-2.35092
-2.28691
-2.2637
-2.32771
-2.28691
-2.22389
-2.20068
-2.2637
-2.22389
-2.16185
-2.13864
-2.20068
-2.16185
-2.1008
-2.07759
-2.13864
-2.1008
-2.04074
-2.01753
-2.07759
-2.04074
-1.98167
-1.95846
-2.01753
-1.98167
-1.92358
-1.90037
-1.95846
-1.92358
-1.86649
-1.84328
-1.90037
-1.86649
-1.81037
-1.78716
-1.84328
-1.81037
-1.75525
-1.73204
-1.78716
-1.75525
-1.70112
-1.67791
-1.73204
-1.70112
-1.64797
-1.62476
-1.67791
-1.64797
-1.59581
-1.5726
-1.62476
-1.59581
-1.54464
-1.52143
-1.5726
-1.54464
-1.49445
-1.47124
-1.52143
-1.49445
-1.44526
-1.42205
-1.47124
-1.44526
-1.39705
-1.37384
-1.42205
-1.39705
-1.34983
-1.32662
-1.37384
-1.34983
-1.30359
-1.28038
-1.32662
-1.30359
-1.25835
-1.23514
-1.28038
-1.25835
-1.21409
-1.19088
-1.23514
-1.21409
-1.17082
-1.14761
-1.19088
-1.17082
-1.12853
-1.10532
-1.14761
-1.12853
-1.08724
-1.06403
-1.10532
-1.08724
-1.04693
-1.02372
-1.06403
-1.04693
-1.00761
-0.9844
-1.02372
-1.00761
-0.969278
-0.946068
-0.9844
-0.969278
-0.931933
-0.908723
-0.946068
-0.931933
-0.895575
-0.872366
-0.908723
-0.895575
-0.860206
-0.836996
-0.872366
-0.860206
-0.825824
-0.802614
-0.836996
-0.825824
-0.79243
-0.76922
-0.802614
-0.79243
-0.760023
-0.736813
-0.76922
-0.760023
-0.728604
-0.705394
-0.736813
-0.728604
-0.698173
-0.674963
-0.705394
-0.698173
-0.668729
-0.645519
-0.674963
-0.668729
-0.640273
-0.617063
-0.645519
-0.640273
-0.612805
-0.589595
-0.617063
-0.612805
-0.586324
-0.563114
-0.589595
-0.586324
-0.560831
-0.537621
-0.563114
-0.560831
-0.536326
-0.513116
-0.537621
-0.536326
-0.512808
-0.489598
-0.513116
-0.512808
-0.490278
-0.467068
-0.489598
-0.490278
-0.468735
-0.445525
-0.467068
-0.468735
-0.448181
-0.424971
-0.445525
-0.448181
-0.428613
-0.405404
-0.424971
-0.428613
-0.410034
-0.386824
-0.405404
-0.410034
-0.392442
-0.369232
-0.386824
-0.392442
-0.375838
-0.352628
-0.369232
-0.375838
-0.360221
-0.337012
-0.352628
-0.360221
-0.345593
-0.322383
-0.337012
-0.345593
-0.331951
-0.308742
-0.322383
-0.331951
-0.319298
-0.296088
-0.308742
-0.319298
-0.307632
-0.284422
-0.296088
-0.307632
-0.296954
-0.273744
-0.284422
-0.296954
-0.287263
-0.264053
-0.273744
-0.287263
-0.27856
-0.25535
-0.264053
-0.27856
-0.270845
-0.247635
-0.25535
-0.270845
-0.264117
-0.240908
-0.247635
-0.264117
-0.258377
-0.235168
-0.240908
-0.258377
-0.253625
-0.230415
-0.235168
-0.253625
-0.24986
-0.226651
-0.230415
-0.24986
-0.247083
-0.223874
-0.226651
-0.247083
-0.245294
-0.222084
-0.223874
-0.245294
-0.244492
-0.221283
-0.222084
-0.244492
-0.244678
-0.221469
-0.221283
-0.244678
-0.245852
-0.222642
-0.221469
-0.245852
-0.248013
-0.224803
-0.222642
-0.248013
-0.251162
-0.227952
-0.224803
-0.251162
-0.255299
-0.232089
-0.227952
-0.255299
-0.260423
-0.237213
-0.232089
-0.260423
-0.266535
-0.243325
-0.237213
-0.266535
-0.273634
-0.250425
-0.243325
-0.273634
-0.281722
-0.258512
-0.250425
-0.281722
-0.290797
-0.267587
-0.258512
-0.290797
-0.300859
-0.277649
-0.267587
-0.300859
-0.311909
-0.288699
-0.277649
-0.311909
-0.323947
-0.300737
-0.288699
-0.323947
-0.336972
-0.313763
-0.300737
-0.336972
-0.350986
-0.327776
-0.313763
-0.350986
-0.365986
-0.342777
-0.327776
-0.365986
-0.381975
-0.358765
-0.342777
-0.381975
-0.398951
-0.375741
-0.358765
-0.398951
-0.416915
-0.393705
-0.375741
-0.416915
-0.435866
-0.412656
-0.393705
-0.435866
-0.455805
-0.432595
-0.412656
-0.455805
-0.476732
-0.453522
-0.432595
-0.476732
-0.498646
-0.475436
-0.453522
-0.498646
-0.521548
-0.498338
-0.475436
-0.521548
-0.545438
-0.522228
-0.498338
-0.545438
-0.570315
-0.547105
-0.522228
-0.570315
-0.59618
-0.57297
-0.547105
-0.59618
-0.623033
-0.599823
-0.57297
-0.623033
-0.650873
-0.627663
-0.599823
-0.650873
-0.679701
-0.656491
-0.627663