# vtk DataFile Version 1.0
unstructured Grid
ASCII
DATASET UNSTRUCTURED_GRID
POINTS 23424 float 
0 0	 0.0
0.0222222 0	 0.0
0.0222222 0.0222222	 0.0
0 0.0222222	 0.0
0.0222222 0	 0.0
0.0444444 0	 0.0
0.0444444 0.0222222	 0.0
0.0222222 0.0222222	 0.0
0.0444444 0	 0.0
0.0666667 0	 0.0
0.0666667 0.0222222	 0.0
0.0444444 0.0222222	 0.0
0.0666667 0	 0.0
0.0888889 0	 0.0
0.0888889 0.0222222	 0.0
0.0666667 0.0222222	 0.0
0.0888889 0	 0.0
0.111111 0	 0.0
0.111111 0.0222222	 0.0
0.0888889 0.0222222	 0.0
0.111111 0	 0.0
0.133333 0	 0.0
0.133333 0.0222222	 0.0
0.111111 0.0222222	 0.0
0.133333 0	 0.0
0.155556 0	 0.0
0.155556 0.0222222	 0.0
0.133333 0.0222222	 0.0
0.155556 0	 0.0
0.177778 0	 0.0
0.177778 0.0222222	 0.0
0.155556 0.0222222	 0.0
0.177778 0	 0.0
0.2 0	 0.0
0.2 0.0222222	 0.0
0.177778 0.0222222	 0.0
0.2 0	 0.0
0.222222 0	 0.0
0.222222 0.0222222	 0.0
0.2 0.0222222	 0.0
0.222222 0	 0.0
0.244444 0	 0.0
0.244444 0.0222222	 0.0
0.222222 0.0222222	 0.0
0.244444 0	 0.0
0.266667 0	 0.0
0.266667 0.0222222	 0.0
0.244444 0.0222222	 0.0
0.266667 0	 0.0
0.288889 0	 0.0
0.288889 0.0222222	 0.0
0.266667 0.0222222	 0.0
0.288889 0	 0.0
0.311111 0	 0.0
0.311111 0.0222222	 0.0
0.288889 0.0222222	 0.0
0.311111 0	 0.0
0.333333 0	 0.0
0.333333 0.0222222	 0.0
0.311111 0.0222222	 0.0
0.333333 0	 0.0
0.355556 0	 0.0
0.355556 0.0222222	 0.0
0.333333 0.0222222	 0.0
0.355556 0	 0.0
0.377778 0	 0.0
0.377778 0.0222222	 0.0
0.355556 0.0222222	 0.0
0.377778 0	 0.0
0.4 0	 0.0
0.4 0.0222222	 0.0
0.377778 0.0222222	 0.0
0.4 0	 0.0
0.422222 0	 0.0
0.422222 0.0222222	 0.0
0.4 0.0222222	 0.0
0.422222 0	 0.0
0.444444 0	 0.0
0.444444 0.0222222	 0.0
0.422222 0.0222222	 0.0
0.444444 0	 0.0
0.466667 0	 0.0
0.466667 0.0222222	 0.0
0.444444 0.0222222	 0.0
0.466667 0	 0.0
0.488889 0	 0.0
0.488889 0.0222222	 0.0
0.466667 0.0222222	 0.0
0.488889 0	 0.0
0.511111 0	 0.0
0.511111 0.0222222	 0.0
0.488889 0.0222222	 0.0
0.511111 0	 0.0
0.533333 0	 0.0
0.533333 0.0222222	 0.0
0.511111 0.0222222	 0.0
0.533333 0	 0.0
0.555556 0	 0.0
0.555556 0.0222222	 0.0
0.533333 0.0222222	 0.0
0.555556 0	 0.0
0.577778 0	 0.0
0.577778 0.0222222	 0.0
0.555556 0.0222222	 0.0
0.577778 0	 0.0
0.6 0	 0.0
0.6 0.0222222	 0.0
0.577778 0.0222222	 0.0
0.6 0	 0.0
0.622222 0	 0.0
0.622222 0.0222222	 0.0
0.6 0.0222222	 0.0
0.622222 0	 0.0
0.644444 0	 0.0
0.644444 0.0222222	 0.0
0.622222 0.0222222	 0.0
0.644444 0	 0.0
0.666667 0	 0.0
0.666667 0.0222222	 0.0
0.644444 0.0222222	 0.0
0.666667 0	 0.0
0.688889 0	 0.0
0.688889 0.0222222	 0.0
0.666667 0.0222222	 0.0
0.688889 0	 0.0
0.711111 0	 0.0
0.711111 0.0222222	 0.0
0.688889 0.0222222	 0.0
0.711111 0	 0.0
0.733333 0	 0.0
0.733333 0.0222222	 0.0
0.711111 0.0222222	 0.0
0.733333 0	 0.0
0.755556 0	 0.0
0.755556 0.0222222	 0.0
0.733333 0.0222222	 0.0
0.755556 0	 0.0
0.777778 0	 0.0
0.777778 0.0222222	 0.0
0.755556 0.0222222	 0.0
0.777778 0	 0.0
0.8 0	 0.0
0.8 0.0222222	 0.0
0.777778 0.0222222	 0.0
0.8 0	 0.0
0.822222 0	 0.0
0.822222 0.0222222	 0.0
0.8 0.0222222	 0.0
0.822222 0	 0.0
0.844444 0	 0.0
0.844444 0.0222222	 0.0
0.822222 0.0222222	 0.0
0.844444 0	 0.0
0.866667 0	 0.0
0.866667 0.0222222	 0.0
0.844444 0.0222222	 0.0
0.866667 0	 0.0
0.888889 0	 0.0
0.888889 0.0222222	 0.0
0.866667 0.0222222	 0.0
0.888889 0	 0.0
0.911111 0	 0.0
0.911111 0.0222222	 0.0
0.888889 0.0222222	 0.0
0.911111 0	 0.0
0.933333 0	 0.0
0.933333 0.0222222	 0.0
0.911111 0.0222222	 0.0
0.933333 0	 0.0
0.955556 0	 0.0
0.955556 0.0222222	 0.0
0.933333 0.0222222	 0.0
0.955556 0	 0.0
0.977778 0	 0.0
0.977778 0.0222222	 0.0
0.955556 0.0222222	 0.0
0.977778 0	 0.0
1 0	 0.0
1 0.0222222	 0.0
0.977778 0.0222222	 0.0
1 0	 0.0
1.02222 0	 0.0
1.02222 0.0222222	 0.0
1 0.0222222	 0.0
1.02222 0	 0.0
1.04444 0	 0.0
1.04444 0.0222222	 0.0
1.02222 0.0222222	 0.0
1.04444 0	 0.0
1.06667 0	 0.0
1.06667 0.0222222	 0.0
1.04444 0.0222222	 0.0
1.06667 0	 0.0
1.08889 0	 0.0
1.08889 0.0222222	 0.0
1.06667 0.0222222	 0.0
1.08889 0	 0.0
1.11111 0	 0.0
1.11111 0.0222222	 0.0
1.08889 0.0222222	 0.0
1.11111 0	 0.0
1.13333 0	 0.0
1.13333 0.0222222	 0.0
1.11111 0.0222222	 0.0
1.13333 0	 0.0
1.15556 0	 0.0
1.15556 0.0222222	 0.0
1.13333 0.0222222	 0.0
1.15556 0	 0.0
1.17778 0	 0.0
1.17778 0.0222222	 0.0
1.15556 0.0222222	 0.0
1.17778 0	 0.0
1.2 0	 0.0
1.2 0.0222222	 0.0
1.17778 0.0222222	 0.0
1.2 0	 0.0
1.22222 0	 0.0
1.22222 0.0222222	 0.0
1.2 0.0222222	 0.0
1.22222 0	 0.0
1.24444 0	 0.0
1.24444 0.0222222	 0.0
1.22222 0.0222222	 0.0
1.24444 0	 0.0
1.26667 0	 0.0
1.26667 0.0222222	 0.0
1.24444 0.0222222	 0.0
1.26667 0	 0.0
1.28889 0	 0.0
1.28889 0.0222222	 0.0
1.26667 0.0222222	 0.0
1.28889 0	 0.0
1.31111 0	 0.0
1.31111 0.0222222	 0.0
1.28889 0.0222222	 0.0
1.31111 0	 0.0
1.33333 0	 0.0
1.33333 0.0222222	 0.0
1.31111 0.0222222	 0.0
1.33333 0	 0.0
1.35556 0	 0.0
1.35556 0.0222222	 0.0
1.33333 0.0222222	 0.0
1.35556 0	 0.0
1.37778 0	 0.0
1.37778 0.0222222	 0.0
1.35556 0.0222222	 0.0
1.37778 0	 0.0
1.4 0	 0.0
1.4 0.0222222	 0.0
1.37778 0.0222222	 0.0
1.4 0	 0.0
1.42222 0	 0.0
1.42222 0.0222222	 0.0
1.4 0.0222222	 0.0
1.42222 0	 0.0
1.44444 0	 0.0
1.44444 0.0222222	 0.0
1.42222 0.0222222	 0.0
1.44444 0	 0.0
1.46667 0	 0.0
1.46667 0.0222222	 0.0
1.44444 0.0222222	 0.0
1.46667 0	 0.0
1.48889 0	 0.0
1.48889 0.0222222	 0.0
1.46667 0.0222222	 0.0
1.48889 0	 0.0
1.51111 0	 0.0
1.51111 0.0222222	 0.0
1.48889 0.0222222	 0.0
1.51111 0	 0.0
1.53333 0	 0.0
1.53333 0.0222222	 0.0
1.51111 0.0222222	 0.0
1.53333 0	 0.0
1.55556 0	 0.0
1.55556 0.0222222	 0.0
1.53333 0.0222222	 0.0
1.55556 0	 0.0
1.57778 0	 0.0
1.57778 0.0222222	 0.0
1.55556 0.0222222	 0.0
1.57778 0	 0.0
1.6 0	 0.0
1.6 0.0222222	 0.0
1.57778 0.0222222	 0.0
1.6 0	 0.0
1.62222 0	 0.0
1.62222 0.0222222	 0.0
1.6 0.0222222	 0.0
1.62222 0	 0.0
1.64444 0	 0.0
1.64444 0.0222222	 0.0
1.62222 0.0222222	 0.0
1.64444 0	 0.0
1.66667 0	 0.0
1.66667 0.0222222	 0.0
1.64444 0.0222222	 0.0
1.66667 0	 0.0
1.68889 0	 0.0
1.68889 0.0222222	 0.0
1.66667 0.0222222	 0.0
1.68889 0	 0.0
1.71111 0	 0.0
1.71111 0.0222222	 0.0
1.68889 0.0222222	 0.0
1.71111 0	 0.0
1.73333 0	 0.0
1.73333 0.0222222	 0.0
1.71111 0.0222222	 0.0
1.73333 0	 0.0
1.75556 0	 0.0
1.75556 0.0222222	 0.0
1.73333 0.0222222	 0.0
1.75556 0	 0.0
1.77778 0	 0.0
1.77778 0.0222222	 0.0
1.75556 0.0222222	 0.0
1.77778 0	 0.0
1.8 0	 0.0
1.8 0.0222222	 0.0
1.77778 0.0222222	 0.0
1.8 0	 0.0
1.82222 0	 0.0
1.82222 0.0222222	 0.0
1.8 0.0222222	 0.0
1.82222 0	 0.0
1.84444 0	 0.0
1.84444 0.0222222	 0.0
1.82222 0.0222222	 0.0
1.84444 0	 0.0
1.86667 0	 0.0
1.86667 0.0222222	 0.0
1.84444 0.0222222	 0.0
1.86667 0	 0.0
1.88889 0	 0.0
1.88889 0.0222222	 0.0
1.86667 0.0222222	 0.0
1.88889 0	 0.0
1.91111 0	 0.0
1.91111 0.0222222	 0.0
1.88889 0.0222222	 0.0
1.91111 0	 0.0
1.93333 0	 0.0
1.93333 0.0222222	 0.0
1.91111 0.0222222	 0.0
1.93333 0	 0.0
1.95556 0	 0.0
1.95556 0.0222222	 0.0
1.93333 0.0222222	 0.0
1.95556 0	 0.0
1.97778 0	 0.0
1.97778 0.0222222	 0.0
1.95556 0.0222222	 0.0
1.97778 0	 0.0
2 0	 0.0
2 0.0222222	 0.0
1.97778 0.0222222	 0.0
2 0	 0.0
2.02222 0	 0.0
2.02222 0.0222222	 0.0
2 0.0222222	 0.0
2.02222 0	 0.0
2.04444 0	 0.0
2.04444 0.0222222	 0.0
2.02222 0.0222222	 0.0
2.04444 0	 0.0
2.06667 0	 0.0
2.06667 0.0222222	 0.0
2.04444 0.0222222	 0.0
2.06667 0	 0.0
2.08889 0	 0.0
2.08889 0.0222222	 0.0
2.06667 0.0222222	 0.0
2.08889 0	 0.0
2.11111 0	 0.0
2.11111 0.0222222	 0.0
2.08889 0.0222222	 0.0
2.11111 0	 0.0
2.13333 0	 0.0
2.13333 0.0222222	 0.0
2.11111 0.0222222	 0.0
2.13333 0	 0.0
2.15556 0	 0.0
2.15556 0.0222222	 0.0
2.13333 0.0222222	 0.0
2.15556 0	 0.0
2.17778 0	 0.0
2.17778 0.0222222	 0.0
2.15556 0.0222222	 0.0
2.17778 0	 0.0
2.2 0	 0.0
2.2 0.0222222	 0.0
2.17778 0.0222222	 0.0
2.2 0	 0.0
2.22222 0	 0.0
2.22222 0.0222222	 0.0
2.2 0.0222222	 0.0
2.22222 0	 0.0
2.24444 0	 0.0
2.24444 0.0222222	 0.0
2.22222 0.0222222	 0.0
2.24444 0	 0.0
2.26667 0	 0.0
2.26667 0.0222222	 0.0
2.24444 0.0222222	 0.0
2.26667 0	 0.0
2.28889 0	 0.0
2.28889 0.0222222	 0.0
2.26667 0.0222222	 0.0
2.28889 0	 0.0
2.31111 0	 0.0
2.31111 0.0222222	 0.0
2.28889 0.0222222	 0.0
2.31111 0	 0.0
2.33333 0	 0.0
2.33333 0.0222222	 0.0
2.31111 0.0222222	 0.0
2.33333 0	 0.0
2.35556 0	 0.0
2.35556 0.0222222	 0.0
2.33333 0.0222222	 0.0
2.35556 0	 0.0
2.37778 0	 0.0
2.37778 0.0222222	 0.0
2.35556 0.0222222	 0.0
2.37778 0	 0.0
2.4 0	 0.0
2.4 0.0222222	 0.0
2.37778 0.0222222	 0.0
2.4 0	 0.0
2.42222 0	 0.0
2.42222 0.0222222	 0.0
2.4 0.0222222	 0.0
2.42222 0	 0.0
2.44444 0	 0.0
2.44444 0.0222222	 0.0
2.42222 0.0222222	 0.0
2.44444 0	 0.0
2.46667 0	 0.0
2.46667 0.0222222	 0.0
2.44444 0.0222222	 0.0
2.46667 0	 0.0
2.48889 0	 0.0
2.48889 0.0222222	 0.0
2.46667 0.0222222	 0.0
2.48889 0	 0.0
2.51111 0	 0.0
2.51111 0.0222222	 0.0
2.48889 0.0222222	 0.0
2.51111 0	 0.0
2.53333 0	 0.0
2.53333 0.0222222	 0.0
2.51111 0.0222222	 0.0
2.53333 0	 0.0
2.55556 0	 0.0
2.55556 0.0222222	 0.0
2.53333 0.0222222	 0.0
2.55556 0	 0.0
2.57778 0	 0.0
2.57778 0.0222222	 0.0
2.55556 0.0222222	 0.0
2.57778 0	 0.0
2.6 0	 0.0
2.6 0.0222222	 0.0
2.57778 0.0222222	 0.0
2.6 0	 0.0
2.62222 0	 0.0
2.62222 0.0222222	 0.0
2.6 0.0222222	 0.0
2.62222 0	 0.0
2.64444 0	 0.0
2.64444 0.0222222	 0.0
2.62222 0.0222222	 0.0
2.64444 0	 0.0
2.66667 0	 0.0
2.66667 0.0222222	 0.0
2.64444 0.0222222	 0.0
2.66667 0	 0.0
2.68889 0	 0.0
2.68889 0.0222222	 0.0
2.66667 0.0222222	 0.0
2.68889 0	 0.0
2.71111 0	 0.0
2.71111 0.0222222	 0.0
2.68889 0.0222222	 0.0
2.71111 0	 0.0
2.73333 0	 0.0
2.73333 0.0222222	 0.0
2.71111 0.0222222	 0.0
2.73333 0	 0.0
2.75556 0	 0.0
2.75556 0.0222222	 0.0
2.73333 0.0222222	 0.0
2.75556 0	 0.0
2.77778 0	 0.0
2.77778 0.0222222	 0.0
2.75556 0.0222222	 0.0
2.77778 0	 0.0
2.8 0	 0.0
2.8 0.0222222	 0.0
2.77778 0.0222222	 0.0
2.8 0	 0.0
2.82222 0	 0.0
2.82222 0.0222222	 0.0
2.8 0.0222222	 0.0
2.82222 0	 0.0
2.84444 0	 0.0
2.84444 0.0222222	 0.0
2.82222 0.0222222	 0.0
2.84444 0	 0.0
2.86667 0	 0.0
2.86667 0.0222222	 0.0
2.84444 0.0222222	 0.0
2.86667 0	 0.0
2.88889 0	 0.0
2.88889 0.0222222	 0.0
2.86667 0.0222222	 0.0
2.88889 0	 0.0
2.91111 0	 0.0
2.91111 0.0222222	 0.0
2.88889 0.0222222	 0.0
2.91111 0	 0.0
[...]
POINT_DATA 23424
SCALARS levelset_first float
LOOKUP_TABLE default
-0.877347
-0.84466
-0.818487
-0.851174
-0.84466
-0.812961
-0.786788
-0.818487
-0.812961
-0.78225
-0.756077
-0.786788
-0.78225
-0.752527
-0.726354
-0.756077
-0.752527
-0.723791
-0.697618
-0.726354
-0.723791
-0.696043
-0.66987
-0.697618
-0.696043
-0.669282
-0.643109
-0.66987
-0.669282
-0.643509
-0.617336
-0.643109
-0.643509
-0.618724
-0.592551
-0.617336
-0.618724
-0.594926
-0.568754
-0.592551
-0.594926
-0.572116
-0.545944
-0.568754
-0.572116
-0.550294
-0.524121
-0.545944
-0.550294
-0.52946
-0.503287
-0.524121
-0.52946
-0.509613
-0.48344
-0.503287
-0.509613
-0.490753
-0.464581
-0.48344
-0.490753
-0.472882
-0.446709
-0.464581
-0.472882
-0.455998
-0.429825
-0.446709
-0.455998
-0.440101
-0.413929
-0.429825
-0.440101
-0.425193
-0.39902
-0.413929
-0.425193
-0.411272
-0.385099
-0.39902
-0.411272
-0.398338
-0.372165
-0.385099
-0.398338
-0.386393
-0.36022
-0.372165
-0.386393
-0.375435
-0.349262
-0.36022
-0.375435
-0.365464
-0.339291
-0.349262
-0.365464
-0.356481
-0.330309
-0.339291
-0.356481
-0.348486
-0.322313
-0.330309
-0.348486
-0.341479
-0.315306
-0.322313
-0.341479
-0.335459
-0.309286
-0.315306
-0.335459
-0.330427
-0.304254
-0.309286
-0.330427
-0.326382
-0.30021
-0.304254
-0.326382
-0.323326
-0.297153
-0.30021
-0.323326
-0.321256
-0.295084
-0.297153
-0.321256
-0.320175
-0.294002
-0.295084
-0.320175
-0.320081
-0.293908
-0.294002
-0.320081
-0.320975
-0.294802
-0.293908
-0.320975
-0.322856
-0.296683
-0.294802
-0.322856
-0.325725
-0.299552
-0.296683
-0.325725
-0.329582
-0.303409
-0.299552
-0.329582
-0.334426
-0.308254
-0.303409
-0.334426
-0.340259
-0.314086
-0.308254
-0.340259
-0.347078
-0.320905
-0.314086
-0.347078
-0.354886
-0.328713
-0.320905
-0.354886
-0.363681
-0.337508
-0.328713
-0.363681
-0.373463
-0.34729
-0.337508
-0.373463
-0.384234
-0.358061
-0.34729
-0.384234
-0.395992
-0.369819
-0.358061
-0.395992
-0.408737
-0.382564
-0.369819
-0.408737
-0.422471
-0.396298
-0.382564
-0.422471
-0.437191
-0.411019
-0.396298
-0.437191
-0.4529
-0.426727
-0.411019
-0.4529
-0.469596
-0.443424
-0.426727
-0.469596
-0.48728
-0.461107
-0.443424
-0.48728
-0.505952
-0.479779
-0.461107
-0.505952
-0.525611
-0.499438
-0.479779
-0.525611
-0.546258
-0.520085
-0.499438
-0.546258
-0.567892
-0.54172
-0.520085
-0.567892
-0.590515
-0.564342
-0.54172
-0.590515
-0.614124
-0.587952
-0.564342
-0.614124
-0.638722
-0.612549
-0.587952
-0.638722
-0.664307
-0.638134
-0.612549
-0.664307
-0.69088
-0.664707
-0.638134
-0.69088
-0.71844
-0.692268
-0.664707
-0.71844
-0.746988
-0.720816
-0.692268
-0.746988
-0.776524
-0.750351
-0.720816
-0.776524
-0.807048
-0.780875
-0.750351
-0.807048
-0.838559
-0.812386
-0.780875
-0.838559
-0.871057
-0.844885
-0.812386
-0.871057
-0.904544
-0.878371
-0.844885
-0.904544
-0.939018
-0.912845
-0.878371
-0.939018
-0.97448
-0.948307
-0.912845
-0.97448
-1.01093
-0.984756
-0.948307
-1.01093
-1.04837
-1.02219
-0.984756
-1.04837
-1.08679
-1.06062
-1.02219
-1.08679
-1.1262
-1.10003
-1.06062
-1.1262
-1.1666
-1.14043
-1.10003
-1.1666
-1.20799
-1.18182
-1.14043
-1.20799
-1.25037
-1.22419
-1.18182
-1.25037
-1.29373
-1.26756
-1.22419
-1.29373
-1.33808
-1.31191
-1.26756
-1.33808
-1.38342
-1.35724
-1.31191
-1.38342
-1.42974
-1.40357
-1.35724
-1.42974
-1.47706
-1.45088
-1.40357
-1.47706
-1.52536
-1.49919
-1.45088
-1.52536
-1.57465
-1.54847
-1.49919
-1.57465
-1.62492
-1.59875
-1.54847
-1.62492
-1.67619
-1.65001
-1.59875
-1.67619
-1.72844
-1.70227
-1.65001
-1.72844
-1.78168
-1.75551
-1.70227
-1.78168
-1.83591
-1.80973
-1.75551
-1.83591
-1.89112
-1.86495
-1.80973
-1.89112
-1.94732
-1.92115
-1.86495
-1.94732
-2.00451
-1.97834
-1.92115
-2.00451
-2.06269
-2.03652
-1.97834
-2.06269
-2.12186
-2.09568
-2.03652
-2.12186
-2.18201
-2.15584
-2.09568
-2.18201
-2.24315
-2.21698
-2.15584
-2.24315
-2.30528
-2.27911
-2.21698
-2.30528
-2.36839
-2.34222
-2.27911
-2.36839
-2.4325
-2.40633
-2.34222
-2.4325
-2.49759
-2.47142
-2.40633
-2.49759
-2.56367
-2.5375
-2.47142
-2.56367
-2.63074
-2.60456
-2.5375
-2.63074
-2.69879
-2.67262
-2.60456
-2.69879
-2.76783
-2.74166
-2.67262
-2.76783
-2.83786
-2.81169
-2.74166
-2.83786
-2.90888
-2.88271
-2.81169
-2.90888
-2.98088
-2.95471
-2.88271
-2.98088
-3.05388
-3.0277
-2.95471
-3.05388
-3.12786
-3.10168
-3.0277
-3.12786
-3.20282
-3.17665
-3.10168
-3.20282
-3.27878
-3.25261
-3.17665
-3.27878
-3.35572
-3.32955
-3.25261
-3.35572
-3.43365
-3.40748
-3.32955
-3.43365
-3.51257
-3.4864
-3.40748
-3.51257
-3.59248
-3.5663
-3.4864
-3.59248
-3.67337
-3.6472
-3.5663
-3.67337
-3.75525
-3.72908
-3.6472
-3.75525
-3.83812
-3.81195
-3.72908
-3.83812
-3.92198
-3.89581
-3.81195
-3.92198
-4.00682
-3.98065
-3.89581
-4.00682
-4.09266
-4.06648
-3.98065
-4.09266
-4.17948
-4.1533
-4.06648
-4.17948
-4.26728
-4.24111
-4.1533
-4.26728
-4.35608
-4.3299
-4.24111
-4.35608
-4.44586
-4.41969
-4.3299
-4.44586
-4.53663
-4.51046
-4.41969
-4.53663
-4.62839
-4.60222
-4.51046
-4.62839
-4.72113
-4.69496
-4.60222
-4.72113
-4.81487
-4.78869
-4.69496
-4.81487
-4.90959
-4.88342
-4.78869
-4.90959
-5.0053
-4.97912
-4.88342
-5.0053
-5.10199
-5.07582
-4.97912
-5.10199
-5.19968
-5.1735
-5.07582
-5.19968
-5.29835
-5.27218
-5.1735
-5.29835
-5.39801
-5.37183
-5.27218
-0.851174
-0.818487
-0.793302
-0.825989
-0.818487
-0.786788
-0.761603
-0.793302
-0.786788
-0.756077
-0.730892
-0.761603
-0.756077
-0.726354
-0.701169
-0.730892
-0.726354
-0.697618
-0.672433
-0.701169
-0.697618
-0.66987
-0.644685
-0.672433
-0.66987
-0.643109
-0.617924
-0.644685
-0.643109
-0.617336
-0.592151
-0.617924
-0.617336
-0.592551
-0.567366
-0.592151
-0.592551
-0.568754
-0.543568
-0.567366
-0.568754
-0.545944
-0.520758
-0.543568
-0.545944
-0.524121
-0.498936
-0.520758
-0.524121
-0.503287
-0.478102
-0.498936
-0.503287
-0.48344
-0.458255
-0.478102
-0.48344
-0.464581
-0.439395
-0.458255
-0.464581
-0.446709
-0.421524
-0.439395
-0.446709
-0.429825
-0.40464
-0.421524
-0.429825
-0.413929
-0.388743
-0.40464
-0.413929
-0.39902
-0.373835
-0.388743
-0.39902
-0.385099
-0.359914
-0.373835
-0.385099
-0.372165
-0.34698
-0.359914
-0.372165
-0.36022
-0.335035
-0.34698
-0.36022
-0.349262
-0.324076
-0.335035
-0.349262
-0.339291
-0.314106
-0.324076
-0.339291
-0.330309
-0.305123
-0.314106
-0.330309
-0.322313
-0.297128
-0.305123
-0.322313
-0.315306
-0.290121
-0.297128
-0.315306
-0.309286
-0.284101
-0.290121
-0.309286
-0.304254
-0.279069
-0.284101
-0.304254
-0.30021
-0.275024
-0.279069
-0.30021
-0.297153
-0.271968
-0.275024
-0.297153
-0.295084
-0.269898
-0.271968
-0.295084
-0.294002
-0.268817
-0.269898
-0.294002
-0.293908
-0.268723
-0.268817
-0.293908
-0.294802
-0.269617
-0.268723
-0.294802
-0.296683
-0.271498
-0.269617
-0.296683
-0.299552
-0.274367
-0.271498
-0.299552
-0.303409
-0.278224
-0.274367
-0.303409
-0.308254
-0.283068
-0.278224
-0.308254
-0.314086
-0.2889
-0.283068
-0.314086
-0.320905
-0.29572
-0.2889
-0.320905
-0.328713
-0.303528
-0.29572
-0.328713
-0.337508
-0.312323
-0.303528
-0.337508
-0.34729
-0.322105
-0.312323
-0.34729
-0.358061
-0.332876
-0.322105
-0.358061
-0.369819
-0.344634
-0.332876
-0.369819
-0.382564
-0.357379
-0.344634
-0.382564
-0.396298
-0.371113
-0.357379
-0.396298
-0.411019
-0.385833
-0.371113
-0.411019
-0.426727
-0.401542
-0.385833
-0.426727
-0.443424
-0.418238
-0.401542
-0.443424
-0.461107
-0.435922
-0.418238
-0.461107
-0.479779
-0.454594
-0.435922
-0.479779
-0.499438
-0.474253
-0.454594
-0.499438
-0.520085
-0.4949
-0.474253
-0.520085
-0.54172
-0.516534
-0.4949
-0.54172
-0.564342
-0.539157
-0.516534
-0.564342
-0.587952
-0.562766
-0.539157
-0.587952
-0.612549
-0.587364
-0.562766
-0.612549
-0.638134
-0.612949
-0.587364
-0.638134
-0.664707
-0.639522
-0.612949
-0.664707
-0.692268
-0.667082
-0.639522
-0.692268
-0.720816
-0.69563
-0.667082
-0.720816
-0.750351
-0.725166
-0.69563
-0.750351
-0.780875
-0.75569
-0.725166
-0.780875
-0.812386
-0.787201
-0.75569
-0.812386
-0.844885
-0.819699
-0.787201
-0.844885
-0.878371
-0.853186
-0.819699
-0.878371
-0.912845
-0.88766
-0.853186
-0.912845
-0.948307
-0.923122
-0.88766
-0.948307
-0.984756
-0.959571
-0.923122
-0.984756
-1.02219
-0.997008
-0.959571
-1.02219
-1.06062
-1.03543
-0.997008
-1.06062
-1.10003
-1.07484
-1.03543
-1.10003
-1.14043
-1.11524
-1.07484
-1.14043
-1.18182
-1.15663
-1.11524
-1.18182
-1.22419
-1.19901
-1.15663
-1.22419
-1.26756
-1.24237
-1.19901
-1.26756
-1.31191
-1.28672
-1.24237
-1.31191
-1.35724
-1.33206
-1.28672
-1.35724
-1.40357
-1.37839
-1.33206
-1.40357
-1.45088
-1.4257
-1.37839
-1.45088
-1.49919
-1.474
-1.4257
-1.49919
-1.54847
-1.52329
-1.474
-1.54847
-1.59875
-1.57357
-1.52329
-1.59875
-1.65001
-1.62483
-1.57357
-1.65001
-1.70227
-1.67708
-1.62483
-1.70227
-1.75551
-1.73032
-1.67708
-1.75551
-1.80973
-1.78455
-1.73032
-1.80973
-1.86495
-1.83976
-1.78455
-1.86495
-1.92115
-1.89597
-1.83976
-1.92115
-1.97834
-1.95316
-1.89597
-1.97834
-2.03652
-2.01133
-1.95316
-2.03652
-2.09568
-2.0705
-2.01133
-2.09568
-2.15584
-2.13065
-2.0705
-2.15584
-2.21698
-2.19179
-2.13065
-2.21698
-2.27911
-2.25392
-2.19179
-2.27911
-2.34222
-2.31704
-2.25392
-2.34222
-2.40633
-2.38114
-2.31704
-2.40633
-2.47142
-2.44623
-2.38114
-2.47142
-2.5375
-2.51231
-2.44623
-2.5375
-2.60456
-2.57938
-2.51231
-2.60456
-2.67262
-2.64743
-2.57938
-2.67262
-2.74166
-2.71647
-2.64743
-2.74166
-2.81169
-2.7865
-2.71647
-2.81169
-2.88271
-2.85752
-2.7865
-2.88271
-2.95471
-2.92952
-2.85752
-2.95471
-3.0277
-3.00252
-2.92952
-3.0277
-3.10168
-3.0765
-3.00252
-3.10168
-3.17665
-3.15147
-3.0765
-3.17665
-3.25261
-3.22742
-3.15147
-3.25261
-3.32955
-3.30436
-3.22742
-3.32955
-3.40748
-3.3823
-3.30436
-3.40748
-3.4864
-3.46121
-3.3823
-3.4864
-3.5663
-3.54112
-3.46121
-3.5663
-3.6472
-3.62201
-3.54112
-3.6472
-3.72908
-3.70389
-3.62201
-3.72908
-3.81195
-3.78676
-3.70389
-3.81195
-3.89581
-3.87062
-3.78676
-3.89581
-3.98065
-3.95547
-3.87062
-3.98065
-4.06648
-4.0413
-3.95547
-4.06648
-4.1533
-4.12812
-4.0413
-4.1533
-4.24111
-4.21592
-4.12812
-4.24111
-4.3299
-4.30472
-4.21592
-4.3299
-4.41969
-4.3945
-4.30472
-4.41969
-4.51046
-4.48527
-4.3945
-4.51046
-4.60222
-4.57703
-4.48527
-4.60222
-4.69496
-4.66978
-4.57703
-4.69496
-4.78869
-4.76351
-4.66978
-4.78869
-4.88342
-4.85823
-4.76351
-4.88342
-4.97912
-4.95394
-4.85823
-4.97912
-5.07582
-5.05064
-4.95394
-5.07582
-5.1735
-5.14832
-5.05064
-5.1735
-5.27218
-5.24699
-5.14832
-5.27218
-5.37183
-5.34665
-5.24699
-0.825989
-0.793302
-0.769105
-0.801791
-0.793302
-0.761603
-0.737406
-0.769105
-0.761603
-0.730892
-0.706695
-0.737406
-0.730892
-0.701169
-0.676971
-0.706695
-0.701169
-0.672433
-0.648235
-0.676971
-0.672433
-0.644685
-0.620487
-0.648235
-0.644685
-0.617924
-0.593727
-0.620487
-0.617924
-0.592151
-0.567954
-0.593727
-0.592151
-0.567366
-0.543168
-0.567954
-0.567366
-0.543568
-0.519371
-0.543168
-0.543568
-0.520758
-0.496561
-0.519371
-0.520758
-0.498936
-0.474739
-0.496561
-0.498936
-0.478102
-0.453904
-0.474739
-0.478102
-0.458255
-0.434057
-0.453904
-0.458255
-0.439395
-0.415198
-0.434057
-0.439395
-0.421524
-0.397326
-0.415198
-0.421524
-0.40464
-0.380442
-0.397326
-0.40464
-0.388743
-0.364546
-0.380442
-0.388743
-0.373835
-0.349637
-0.364546
-0.373835
-0.359914
-0.335716
-0.349637
-0.359914
-0.34698
-0.322783
-0.335716
-0.34698
-0.335035
-0.310837
-0.322783
-0.335035
-0.324076
-0.299879
-0.310837
-0.324076
-0.314106
-0.289909
-0.299879
-0.314106
-0.305123
-0.280926
-0.289909
-0.305123
-0.297128
-0.272931
-0.280926
-0.297128
-0.290121
-0.265923
-0.272931
-0.290121
-0.284101
-0.259903
-0.265923
-0.284101
-0.279069
-0.254871
-0.259903
-0.279069
-0.275024
-0.250827
-0.254871
-0.275024
-0.271968
-0.24777
-0.250827
-0.271968
-0.269898
-0.245701
-0.24777
-0.269898
-0.268817
-0.244619
-0.245701
-0.268817
-0.268723
-0.244525
-0.244619
-0.268723
-0.269617
-0.245419
-0.244525
-0.269617
-0.271498
-0.247301
-0.245419
-0.271498
-0.274367
-0.25017
-0.247301
-0.274367
-0.278224
-0.254027
-0.25017
-0.278224
-0.283068
-0.258871
-0.254027
-0.283068
-0.2889
-0.264703
-0.258871
-0.2889
-0.29572
-0.271523
-0.264703
-0.29572
-0.303528
-0.27933
-0.271523
-0.303528
-0.312323
-0.288125
-0.27933
-0.312323
-0.322105
-0.297908
-0.288125
-0.322105
-0.332876
-0.308678
-0.297908
-0.332876
-0.344634
-0.320436
-0.308678
-0.344634
-0.357379
-0.333182
-0.320436
-0.357379
-0.371113
-0.346915
-0.333182
-0.371113
-0.385833
-0.361636
-0.346915
-0.385833
-0.401542
-0.377345
-0.361636
-0.401542
-0.418238
-0.394041
-0.377345
-0.418238
-0.435922
-0.411725
-0.394041
-0.435922
-0.454594
-0.430396
-0.411725
-0.454594
-0.474253
-0.450055
-0.430396
-0.474253
-0.4949
-0.470702
-0.450055
-0.4949
-0.516534
-0.492337
-0.470702
-0.516534
-0.539157
-0.514959
-0.492337
-0.539157
-0.562766
-0.538569
-0.514959
-0.562766
-0.587364
-0.563166
-0.538569
-0.587364
-0.612949
-0.588752
-0.563166
-0.612949
-0.639522
-0.615324
-0.588752
-0.639522
-0.667082
-0.642885
-0.615324
-0.667082
-0.69563
-0.671433
-0.642885
-0.69563
-0.725166
-0.700969
-0.671433
-0.725166
-0.75569
-0.731492
-0.700969
-0.75569
-0.787201
-0.763003
-0.731492
-0.787201
-0.819699
-0.795502
-0.763003
-0.819699
-0.853186
-0.828988
-0.795502
-0.853186
-0.88766
-0.863462
-0.828988
-0.88766
-0.923122
-0.898924
-0.863462
-0.923122
-0.959571
-0.935373
-0.898924
-0.959571
-0.997008
-0.97281
-0.935373
-0.997008
-1.03543
-1.01123
-0.97281
-1.03543
-1.07484
-1.05065
-1.01123
-1.07484
-1.11524
-1.09105
-1.05065
-1.11524
-1.15663
-1.13243
-1.09105
-1.15663
-1.19901
-1.17481
-1.13243
-1.19901
-1.24237
-1.21817
-1.17481
-1.24237
-1.28672
-1.26252
-1.21817
-1.28672
-1.33206
-1.30786
-1.26252
-1.33206
-1.37839
-1.35419
-1.30786
-1.37839
-1.4257
-1.4015
-1.35419
-1.4257
-1.474
-1.4498
-1.4015
-1.474
-1.52329
-1.49909
-1.4498
-1.52329
-1.57357
-1.54937
-1.49909
-1.57357
-1.62483
-1.60063
-1.54937
-1.62483
-1.67708
-1.65288
-1.60063
-1.67708
-1.73032
-1.70612
-1.65288
-1.73032
-1.78455
-1.76035
-1.70612
-1.78455
-1.83976
-1.81557
-1.76035
-1.83976
-1.89597
-1.87177
-1.81557
-1.89597
-1.95316
-1.92896
-1.87177
-1.95316
-2.01133
-1.98714
-1.92896
-2.01133
-2.0705
-2.0463
-1.98714
-2.0705
-2.13065
-2.10645
-2.0463
-2.13065
-2.19179
-2.16759
-2.10645
-2.19179
-2.25392
-2.22972
-2.16759
-2.25392
-2.31704
-2.29284
-2.22972
-2.31704
-2.38114
-2.35694
-2.29284
-2.38114
-2.44623
-2.42203
-2.35694
-2.44623
-2.51231
-2.48811
-2.42203
-2.51231
-2.57938
-2.55518
-2.48811
-2.57938
-2.64743
-2.62323
-2.55518
-2.64743
-2.71647
-2.69228
-2.62323
-2.71647
-2.7865
-2.76231
-2.69228
-2.7865
-2.85752
-2.83332
-2.76231
-2.85752
-2.92952
-2.90533
-2.83332
-2.92952
-3.00252
-2.97832
-2.90533
-3.00252
-3.0765
-3.0523
-2.97832
-3.0765
-3.15147
-3.12727
-3.0523
-3.15147
-3.22742
-3.20322
-3.12727
-3.22742
-3.30436
-3.28017
-3.20322
-3.30436
-3.3823
-3.3581
-3.28017
-3.3823
-3.46121
-3.43702
-3.3581
-3.46121
-3.54112
-3.51692
-3.43702
-3.54112
-3.62201
-3.59782
-3.51692
-3.62201
-3.70389
-3.6797
-3.59782
-3.70389
-3.78676
-3.76257
-3.6797
-3.78676
-3.87062
-3.84642
-3.76257
-3.87062
-3.95547
-3.93127
-3.84642
-3.95547
-4.0413
-4.0171
-3.93127
-4.0413
-4.12812
-4.10392
-4.0171
-4.12812
-4.21592
-4.19173
-4.10392
-4.21592
-4.30472
-4.28052
-4.19173
-4.30472
-4.3945
-4.3703
-4.28052
-4.3945
-4.48527
-4.46107
-4.3703
-4.48527
-4.57703
-4.55283
-4.46107
-4.57703
-4.66978
-4.64558
-4.55283
-4.66978
-4.76351
-4.73931
-4.64558
-4.76351
-4.85823
-4.83403
-4.73931
-4.85823
-4.95394
-4.92974
-4.83403
-4.95394
-5.05064
-5.02644
-4.92974
-5.05064
-5.14832
-5.12412
-5.02644
-5.14832
-5.24699
-5.22279
-5.12412
-5.24699
-5.34665
-5.32245
-5.22279
-0.801791
-0.769105
-0.745895
-0.778581
-0.769105
-0.737406
-0.714196
-0.745895
-0.737406
-0.706695
-0.683485
-0.714196
-0.706695
-0.676971
-0.653761
-0.683485
-0.676971
-0.648235
-0.625025
-0.653761
-0.648235
-0.620487
-0.597277
-0.625025
-0.620487
-0.593727
-0.570517
-0.597277
-0.593727
-0.567954
-0.544744
-0.570517
-0.567954
-0.543168
-0.519959
-0.544744
-0.543168
-0.519371
-0.496161
-0.519959
-0.519371
-0.496561
-0.473351
-0.496161
-0.496561
-0.474739
-0.451529
-0.473351
-0.474739
-0.453904
-0.430694
-0.451529
-0.453904
-0.434057
-0.410847
-0.430694
-0.434057
-0.415198
-0.391988
-0.410847
-0.415198
-0.397326
-0.374116
-0.391988
-0.397326
-0.380442
-0.357232
-0.374116
-0.380442
-0.364546
-0.341336
-0.357232
-0.364546
-0.349637
-0.326427
-0.341336
-0.349637
-0.335716
-0.312506
-0.326427
-0.335716
-0.322783
-0.299573
-0.312506
-0.322783
-0.310837
-0.287627
-0.299573
-0.310837
-0.299879
-0.276669
-0.287627
-0.299879
-0.289909
-0.266699
-0.276669
-0.289909
-0.280926
-0.257716
-0.266699
-0.280926
-0.272931
-0.249721
-0.257716
-0.272931
-0.265923
-0.242713
-0.249721
-0.265923
-0.259903
-0.236694
-0.242713
-0.259903
-0.254871
-0.231661
-0.236694
-0.254871
-0.250827
-0.227617
-0.231661
-0.250827
-0.24777
-0.22456
-0.227617
-0.24777
-0.245701
-0.222491
-0.22456
-0.245701
-0.244619
-0.221409
-0.222491
-0.244619
-0.244525
-0.221316
-0.221409
-0.244525
-0.245419
-0.222209
-0.221316
-0.245419
-0.247301
-0.224091
-0.222209
-0.247301
-0.25017
-0.22696
-0.224091
-0.25017
-0.254027
-0.230817
-0.22696
-0.254027
-0.258871
-0.235661
-0.230817
-0.258871
-0.264703
-0.241493
-0.235661
-0.264703
-0.271523
-0.248313
-0.241493
-0.271523
-0.27933
-0.25612
-0.248313
-0.27933
-0.288125
-0.264915
-0.25612
-0.288125
-0.297908
-0.274698
-0.264915
-0.297908
-0.308678
-0.285468
-0.274698
-0.308678
-0.320436
-0.297226
-0.285468
-0.320436
-0.333182
-0.309972
-0.297226
-0.333182
-0.346915
-0.323705
-0.309972
-0.346915
-0.361636
-0.338426
-0.323705
-0.361636
-0.377345
-0.354135
-0.338426
-0.377345
-0.394041
-0.370831
-0.354135
-0.394041
-0.411725
-0.388515
-0.370831
-0.411725
-0.430396
-0.407186
-0.388515
-0.430396
-0.450055
-0.426846
-0.407186
-0.450055
-0.470702
-0.447492
-0.426846
-0.470702
-0.492337
-0.469127
-0.447492
-0.492337
-0.514959
-0.491749
-0.469127
-0.514959
-0.538569
-0.515359
-0.491749
-0.538569
-0.563166
-0.539957
-0.515359
-0.563166
-0.588752
-0.565542
-0.539957
-0.588752
-0.615324
-0.592114
-0.565542
-0.615324
-0.642885
-0.619675
-0.592114
-0.642885
-0.671433
-0.648223
-0.619675
-0.671433
-0.700969
-0.677759
-0.648223
-0.700969
-0.731492
-0.708282
-0.677759
-0.731492
-0.763003
-0.739793
-0.708282
-0.763003
-0.795502
-0.772292
-0.739793
-0.795502
-0.828988
-0.805778
-0.772292
-0.828988
-0.863462
-0.840252
-0.805778
-0.863462
-0.898924
-0.875714
-0.840252
-0.898924
-0.935373
-0.912163
-0.875714
-0.935373
-0.97281
-0.9496
-0.912163
-0.97281
-1.01123
-0.988025
-0.9496
-1.01123
-1.05065
-1.02744
-0.988025
-1.05065
-1.09105
-1.06784
-1.02744
-1.09105
-1.13243
-1.10922
-1.06784
-1.13243
-1.17481
-1.1516
-1.10922
-1.17481
-1.21817
-1.19496
-1.1516
-1.21817
-1.26252
-1.23931
-1.19496
-1.26252
-1.30786
-1.28465
-1.23931
-1.30786
-1.35419
-1.33098
-1.28465
-1.35419
-1.4015
-1.37829
-1.33098
-1.4015
-1.4498
-1.42659
-1.37829
-1.4498
-1.49909
-1.47588
-1.42659
-1.49909
-1.54937
-1.52616
-1.47588
-1.54937
-1.60063
-1.57742
-1.52616
-1.60063
-1.65288
-1.62967
-1.57742
-1.65288
-1.70612
-1.68291
-1.62967
-1.70612
-1.76035
-1.73714
-1.68291
-1.76035
-1.81557
-1.79236
-1.73714
-1.81557
-1.87177
-1.84856
-1.79236
-1.87177
-1.92896
-1.90575
-1.84856
-1.92896
-1.98714
-1.96393
-1.90575
-1.98714
-2.0463
-2.02309
-1.96393
-2.0463
-2.10645
-2.08324
-2.02309
-2.10645
-2.16759
-2.14438
-2.08324
-2.16759
-2.22972
-2.20651
-2.14438
-2.22972
-2.29284
-2.26963
-2.20651
-2.29284
-2.35694
-2.33373
-2.26963
-2.35694
-2.42203
-2.39882
-2.33373
-2.42203
-2.48811
-2.4649
-2.39882
-2.48811
-2.55518
-2.53197
-2.4649
-2.55518
-2.62323
-2.60002
-2.53197
-2.62323
-2.69228
-2.66907
-2.60002
-2.69228
-2.76231
-2.7391
-2.66907
-2.76231
-2.83332
-2.81011
-2.7391
-2.83332
-2.90533
-2.88212
-2.81011
-2.90533
-2.97832
-2.95511
-2.88212
-2.97832
-3.0523
-3.02909
-2.95511
-3.0523
-3.12727
-3.10406
-3.02909
-3.12727
-3.20322
-3.18001
-3.10406
-3.20322
-3.28017
-3.25696
-3.18001
-3.28017
-3.3581
-3.33489
-3.25696
-3.3581
-3.43702
-3.41381
-3.33489
-3.43702
-3.51692
-3.49371
-3.41381
-3.51692
-3.59782
-3.57461
-3.49371
-3.59782
-3.6797
-3.65649
-3.57461
-3.6797
-3.76257
-3.73936
-3.65649
-3.76257
-3.84642
-3.82321
-3.73936
-3.84642
-3.93127
-3.90806
-3.82321
-3.93127
-4.0171
-3.99389
-3.90806
-4.0171
-4.10392
-4.08071
-3.99389
-4.10392
-4.19173
-4.16852