# vtk DataFile Version 1.0
unstructured Grid
ASCII
DATASET UNSTRUCTURED_GRID
POINTS 23440 float 
0 0	 0.0
0.0222222 0	 0.0
0.0222222 0.0222222	 0.0
0 0.0222222	 0.0
0.0222222 0	 0.0
0.0444444 0	 0.0
0.0444444 0.0222222	 0.0
0.0222222 0.0222222	 0.0
0.0444444 0	 0.0
0.0666667 0	 0.0
0.0666667 0.0222222	 0.0
0.0444444 0.0222222	 0.0
0.0666667 0	 0.0
0.0888889 0	 0.0
0.0888889 0.0222222	 0.0
0.0666667 0.0222222	 0.0
0.0888889 0	 0.0
0.111111 0	 0.0
0.111111 0.0222222	 0.0
0.0888889 0.0222222	 0.0
0.111111 0	 0.0
0.133333 0	 0.0
0.133333 0.0222222	 0.0
0.111111 0.0222222	 0.0
0.133333 0	 0.0
0.155556 0	 0.0
0.155556 0.0222222	 0.0
0.133333 0.0222222	 0.0
0.155556 0	 0.0
0.177778 0	 0.0
0.177778 0.0222222	 0.0
0.155556 0.0222222	 0.0
0.177778 0	 0.0
0.2 0	 0.0
0.2 0.0222222	 0.0
0.177778 0.0222222	 0.0
0.2 0	 0.0
0.222222 0	 0.0
0.222222 0.0222222	 0.0
0.2 0.0222222	 0.0
0.222222 0	 0.0
0.244444 0	 0.0
0.244444 0.0222222	 0.0
0.222222 0.0222222	 0.0
0.244444 0	 0.0
0.266667 0	 0.0
0.266667 0.0222222	 0.0
0.244444 0.0222222	 0.0
0.266667 0	 0.0
0.288889 0	 0.0
0.288889 0.0222222	 0.0
0.266667 0.0222222	 0.0
0.288889 0	 0.0
0.311111 0	 0.0
0.311111 0.0222222	 0.0
0.288889 0.0222222	 0.0
0.311111 0	 0.0
0.333333 0	 0.0
0.333333 0.0222222	 0.0
0.311111 0.0222222	 0.0
0.333333 0	 0.0
0.355556 0	 0.0
0.355556 0.0222222	 0.0
0.333333 0.0222222	 0.0
0.355556 0	 0.0
0.377778 0	 0.0
0.377778 0.0222222	 0.0
0.355556 0.0222222	 0.0
0.377778 0	 0.0
0.4 0	 0.0
0.4 0.0222222	 0.0
0.377778 0.0222222	 0.0
0.4 0	 0.0
0.422222 0	 0.0
0.422222 0.0222222	 0.0
0.4 0.0222222	 0.0
0.422222 0	 0.0
0.444444 0	 0.0
0.444444 0.0222222	 0.0
0.422222 0.0222222	 0.0
0.444444 0	 0.0
0.466667 0	 0.0
0.466667 0.0222222	 0.0
0.444444 0.0222222	 0.0
0.466667 0	 0.0
0.488889 0	 0.0
0.488889 0.0222222	 0.0
0.466667 0.0222222	 0.0
0.488889 0	 0.0
0.511111 0	 0.0
0.511111 0.0222222	 0.0
0.488889 0.0222222	 0.0
0.511111 0	 0.0
0.533333 0	 0.0
0.533333 0.0222222	 0.0
0.511111 0.0222222	 0.0
0.533333 0	 0.0
0.555556 0	 0.0
0.555556 0.0222222	 0.0
0.533333 0.0222222	 0.0
0.555556 0	 0.0
0.577778 0	 0.0
0.577778 0.0222222	 0.0
0.555556 0.0222222	 0.0
0.577778 0	 0.0
0.6 0	 0.0
0.6 0.0222222	 0.0
0.577778 0.0222222	 0.0
0.6 0	 0.0
0.622222 0	 0.0
0.622222 0.0222222	 0.0
0.6 0.0222222	 0.0
0.622222 0	 0.0
0.644444 0	 0.0
0.644444 0.0222222	 0.0
0.622222 0.0222222	 0.0
0.644444 0	 0.0
0.666667 0	 0.0
0.666667 0.0222222	 0.0
0.644444 0.0222222	 0.0
0.666667 0	 0.0
0.688889 0	 0.0
0.688889 0.0222222	 0.0
0.666667 0.0222222	 0.0
0.688889 0	 0.0
0.711111 0	 0.0
0.711111 0.0222222	 0.0
0.688889 0.0222222	 0.0
0.711111 0	 0.0
0.733333 0	 0.0
0.733333 0.0222222	 0.0
0.711111 0.0222222	 0.0
0.733333 0	 0.0
0.755556 0	 0.0
0.755556 0.0222222	 0.0
0.733333 0.0222222	 0.0
0.755556 0	 0.0
0.777778 0	 0.0
0.777778 0.0222222	 0.0
0.755556 0.0222222	 0.0
0.777778 0	 0.0
0.8 0	 0.0
0.8 0.0222222	 0.0
0.777778 0.0222222	 0.0
0.8 0	 0.0
0.822222 0	 0.0
0.822222 0.0222222	 0.0
0.8 0.0222222	 0.0
0.822222 0	 0.0
0.844444 0	 0.0
0.844444 0.0222222	 0.0
0.822222 0.0222222	 0.0
0.844444 0	 0.0
0.866667 0	 0.0
0.866667 0.0222222	 0.0
0.844444 0.0222222	 0.0
0.866667 0	 0.0
0.888889 0	 0.0
0.888889 0.0222222	 0.0
0.866667 0.0222222	 0.0
0.888889 0	 0.0
0.911111 0	 0.0
0.911111 0.0222222	 0.0
0.888889 0.0222222	 0.0
0.911111 0	 0.0
0.933333 0	 0.0
0.933333 0.0222222	 0.0
0.911111 0.0222222	 0.0
0.933333 0	 0.0
0.955556 0	 0.0
0.955556 0.0222222	 0.0
0.933333 0.0222222	 0.0
0.955556 0	 0.0
0.977778 0	 0.0
0.977778 0.0222222	 0.0
0.955556 0.0222222	 0.0
0.977778 0	 0.0
1 0	 0.0
1 0.0222222	 0.0
0.977778 0.0222222	 0.0
1 0	 0.0
1.02222 0	 0.0
1.02222 0.0222222	 0.0
1 0.0222222	 0.0
1.02222 0	 0.0
1.04444 0	 0.0
1.04444 0.0222222	 0.0
1.02222 0.0222222	 0.0
1.04444 0	 0.0
1.06667 0	 0.0
1.06667 0.0222222	 0.0
1.04444 0.0222222	 0.0
1.06667 0	 0.0
1.08889 0	 0.0
1.08889 0.0222222	 0.0
1.06667 0.0222222	 0.0
1.08889 0	 0.0
1.11111 0	 0.0
1.11111 0.0222222	 0.0
1.08889 0.0222222	 0.0
1.11111 0	 0.0
1.13333 0	 0.0
1.13333 0.0222222	 0.0
1.11111 0.0222222	 0.0
1.13333 0	 0.0
1.15556 0	 0.0
1.15556 0.0222222	 0.0
1.13333 0.0222222	 0.0
1.15556 0	 0.0
1.17778 0	 0.0
1.17778 0.0222222	 0.0
1.15556 0.0222222	 0.0
1.17778 0	 0.0
1.2 0	 0.0
1.2 0.0222222	 0.0
1.17778 0.0222222	 0.0
1.2 0	 0.0
1.22222 0	 0.0
1.22222 0.0222222	 0.0
1.2 0.0222222	 0.0
1.22222 0	 0.0
1.24444 0	 0.0
1.24444 0.0222222	 0.0
1.22222 0.0222222	 0.0
1.24444 0	 0.0
1.26667 0	 0.0
1.26667 0.0222222	 0.0
1.24444 0.0222222	 0.0
1.26667 0	 0.0
1.28889 0	 0.0
1.28889 0.0222222	 0.0
1.26667 0.0222222	 0.0
1.28889 0	 0.0
1.31111 0	 0.0
1.31111 0.0222222	 0.0
1.28889 0.0222222	 0.0
1.31111 0	 0.0
1.33333 0	 0.0
1.33333 0.0222222	 0.0
1.31111 0.0222222	 0.0
1.33333 0	 0.0
1.35556 0	 0.0
1.35556 0.0222222	 0.0
1.33333 0.0222222	 0.0
1.35556 0	 0.0
1.37778 0	 0.0
1.37778 0.0222222	 0.0
1.35556 0.0222222	 0.0
1.37778 0	 0.0
1.4 0	 0.0
1.4 0.0222222	 0.0
1.37778 0.0222222	 0.0
1.4 0	 0.0
1.42222 0	 0.0
1.42222 0.0222222	 0.0
1.4 0.0222222	 0.0
1.42222 0	 0.0
1.44444 0	 0.0
1.44444 0.0222222	 0.0
1.42222 0.0222222	 0.0
1.44444 0	 0.0
1.46667 0	 0.0
1.46667 0.0222222	 0.0
1.44444 0.0222222	 0.0
1.46667 0	 0.0
1.48889 0	 0.0
1.48889 0.0222222	 0.0
1.46667 0.0222222	 0.0
1.48889 0	 0.0
1.51111 0	 0.0
1.51111 0.0222222	 0.0
1.48889 0.0222222	 0.0
1.51111 0	 0.0
1.53333 0	 0.0
1.53333 0.0222222	 0.0
1.51111 0.0222222	 0.0
1.53333 0	 0.0
1.55556 0	 0.0
1.55556 0.0222222	 0.0
1.53333 0.0222222	 0.0
1.55556 0	 0.0
1.57778 0	 0.0
1.57778 0.0222222	 0.0
1.55556 0.0222222	 0.0
1.57778 0	 0.0
1.6 0	 0.0
1.6 0.0222222	 0.0
1.57778 0.0222222	 0.0
1.6 0	 0.0
1.62222 0	 0.0
1.62222 0.0222222	 0.0
1.6 0.0222222	 0.0
1.62222 0	 0.0
1.64444 0	 0.0
1.64444 0.0222222	 0.0
1.62222 0.0222222	 0.0
1.64444 0	 0.0
1.66667 0	 0.0
1.66667 0.0222222	 0.0
1.64444 0.0222222	 0.0
1.66667 0	 0.0
1.68889 0	 0.0
1.68889 0.0222222	 0.0
1.66667 0.0222222	 0.0
1.68889 0	 0.0
1.71111 0	 0.0
1.71111 0.0222222	 0.0
1.68889 0.0222222	 0.0
1.71111 0	 0.0
1.73333 0	 0.0
1.73333 0.0222222	 0.0
1.71111 0.0222222	 0.0
1.73333 0	 0.0
1.75556 0	 0.0
1.75556 0.0222222	 0.0
1.73333 0.0222222	 0.0
1.75556 0	 0.0
1.77778 0	 0.0
1.77778 0.0222222	 0.0
1.75556 0.0222222	 0.0
1.77778 0	 0.0
1.8 0	 0.0
1.8 0.0222222	 0.0
1.77778 0.0222222	 0.0
1.8 0	 0.0
1.82222 0	 0.0
1.82222 0.0222222	 0.0
1.8 0.0222222	 0.0
1.82222 0	 0.0
1.84444 0	 0.0
1.84444 0.0222222	 0.0
1.82222 0.0222222	 0.0
1.84444 0	 0.0
1.86667 0	 0.0
1.86667 0.0222222	 0.0
1.84444 0.0222222	 0.0
1.86667 0	 0.0
1.88889 0	 0.0
1.88889 0.0222222	 0.0
1.86667 0.0222222	 0.0
1.88889 0	 0.0
1.91111 0	 0.0
1.91111 0.0222222	 0.0
1.88889 0.0222222	 0.0
1.91111 0	 0.0
1.93333 0	 0.0
1.93333 0.0222222	 0.0
1.91111 0.0222222	 0.0
1.93333 0	 0.0
1.95556 0	 0.0
1.95556 0.0222222	 0.0
1.93333 0.0222222	 0.0
1.95556 0	 0.0
1.97778 0	 0.0
1.97778 0.0222222	 0.0
1.95556 0.0222222	 0.0
1.97778 0	 0.0
2 0	 0.0
2 0.0222222	 0.0
1.97778 0.0222222	 0.0
2 0	 0.0
2.02222 0	 0.0
2.02222 0.0222222	 0.0
2 0.0222222	 0.0
2.02222 0	 0.0
2.04444 0	 0.0
2.04444 0.0222222	 0.0
2.02222 0.0222222	 0.0
2.04444 0	 0.0
2.06667 0	 0.0
2.06667 0.0222222	 0.0
2.04444 0.0222222	 0.0
2.06667 0	 0.0
2.08889 0	 0.0
2.08889 0.0222222	 0.0
2.06667 0.0222222	 0.0
2.08889 0	 0.0
2.11111 0	 0.0
2.11111 0.0222222	 0.0
2.08889 0.0222222	 0.0
2.11111 0	 0.0
2.13333 0	 0.0
2.13333 0.0222222	 0.0
2.11111 0.0222222	 0.0
2.13333 0	 0.0
2.15556 0	 0.0
2.15556 0.0222222	 0.0
2.13333 0.0222222	 0.0
2.15556 0	 0.0
2.17778 0	 0.0
2.17778 0.0222222	 0.0
2.15556 0.0222222	 0.0
2.17778 0	 0.0
2.2 0	 0.0
2.2 0.0222222	 0.0
2.17778 0.0222222	 0.0
2.2 0	 0.0
2.22222 0	 0.0
2.22222 0.0222222	 0.0
2.2 0.0222222	 0.0
2.22222 0	 0.0
2.24444 0	 0.0
2.24444 0.0222222	 0.0
2.22222 0.0222222	 0.0
2.24444 0	 0.0
2.26667 0	 0.0
2.26667 0.0222222	 0.0
2.24444 0.0222222	 0.0
2.26667 0	 0.0
2.28889 0	 0.0
2.28889 0.0222222	 0.0
2.26667 0.0222222	 0.0
2.28889 0	 0.0
2.31111 0	 0.0
2.31111 0.0222222	 0.0
2.28889 0.0222222	 0.0
2.31111 0	 0.0
2.33333 0	 0.0
2.33333 0.0222222	 0.0
2.31111 0.0222222	 0.0
2.33333 0	 0.0
2.35556 0	 0.0
2.35556 0.0222222	 0.0
2.33333 0.0222222	 0.0
2.35556 0	 0.0
2.37778 0	 0.0
2.37778 0.0222222	 0.0
2.35556 0.0222222	 0.0
2.37778 0	 0.0
2.4 0	 0.0
2.4 0.0222222	 0.0
2.37778 0.0222222	 0.0
2.4 0	 0.0
2.42222 0	 0.0
2.42222 0.0222222	 0.0
2.4 0.0222222	 0.0
2.42222 0	 0.0
2.44444 0	 0.0
2.44444 0.0222222	 0.0
2.42222 0.0222222	 0.0
2.44444 0	 0.0
2.46667 0	 0.0
2.46667 0.0222222	 0.0
2.44444 0.0222222	 0.0
2.46667 0	 0.0
2.48889 0	 0.0
2.48889 0.0222222	 0.0
2.46667 0.0222222	 0.0
2.48889 0	 0.0
2.51111 0	 0.0
2.51111 0.0222222	 0.0
2.48889 0.0222222	 0.0
2.51111 0	 0.0
2.53333 0	 0.0
2.53333 0.0222222	 0.0
2.51111 0.0222222	 0.0
2.53333 0	 0.0
2.55556 0	 0.0
2.55556 0.0222222	 0.0
2.53333 0.0222222	 0.0
2.55556 0	 0.0
2.57778 0	 0.0
2.57778 0.0222222	 0.0
2.55556 0.0222222	 0.0
2.57778 0	 0.0
2.6 0	 0.0
2.6 0.0222222	 0.0
2.57778 0.0222222	 0.0
2.6 0	 0.0
2.62222 0	 0.0
2.62222 0.0222222	 0.0
2.6 0.0222222	 0.0
2.62222 0	 0.0
2.64444 0	 0.0
2.64444 0.0222222	 0.0
2.62222 0.0222222	 0.0
2.64444 0	 0.0
2.66667 0	 0.0
2.66667 0.0222222	 0.0
2.64444 0.0222222	 0.0
2.66667 0	 0.0
2.68889 0	 0.0
2.68889 0.0222222	 0.0
2.66667 0.0222222	 0.0
2.68889 0	 0.0
2.71111 0	 0.0
2.71111 0.0222222	 0.0
2.68889 0.0222222	 0.0
2.71111 0	 0.0
2.73333 0	 0.0
2.73333 0.0222222	 0.0
2.71111 0.0222222	 0.0
2.73333 0	 0.0
2.75556 0	 0.0
2.75556 0.0222222	 0.0
2.73333 0.0222222	 0.0
2.75556 0	 0.0
2.77778 0	 0.0
2.77778 0.0222222	 0.0
2.75556 0.0222222	 0.0
2.77778 0	 0.0
2.8 0	 0.0
2.8 0.0222222	 0.0
2.77778 0.0222222	 0.0
2.8 0	 0.0
2.82222 0	 0.0
2.82222 0.0222222	 0.0
2.8 0.0222222	 0.0
2.82222 0	 0.0
2.84444 0	 0.0
2.84444 0.0222222	 0.0
2.82222 0.0222222	 0.0
2.84444 0	 0.0
2.86667 0	 0.0
2.86667 0.0222222	 0.0
2.84444 0.0222222	 0.0
2.86667 0	 0.0
2.88889 0	 0.0
2.88889 0.0222222	 0.0
2.86667 0.0222222	 0.0
2.88889 0	 0.0
2.91111 0	 0.0
2.91111 0.0222222	 0.0
2.88889 0.0222222	 0.0
2.91111 0	 0.0
[...]
POINT_DATA 23440
SCALARS levelset_first float
LOOKUP_TABLE default
-1.43411
-1.38769
-1.36152
-1.40794
-1.38769
-1.34226
-1.31609
-1.36152
-1.34226
-1.29782
-1.27165
-1.31609
-1.29782
-1.25436
-1.22819
-1.27165
-1.25436
-1.2119
-1.18572
-1.22819
-1.2119
-1.17042
-1.14424
-1.18572
-1.17042
-1.12992
-1.10375
-1.14424
-1.12992
-1.09042
-1.06425
-1.10375
-1.09042
-1.0519
-1.02573
-1.06425
-1.0519
-1.01437
-0.988202
-1.02573
-1.01437
-0.977833
-0.95166
-0.988202
-0.977833
-0.94228
-0.916107
-0.95166
-0.94228
-0.907714
-0.881541
-0.916107
-0.907714
-0.874135
-0.847962
-0.881541
-0.874135
-0.841544
-0.815372
-0.847962
-0.841544
-0.809941
-0.783769
-0.815372
-0.809941
-0.779326
-0.753153
-0.783769
-0.779326
-0.749698
-0.723525
-0.753153
-0.749698
-0.721058
-0.694885
-0.723525
-0.721058
-0.693406
-0.667233
-0.694885
-0.693406
-0.666741
-0.640568
-0.667233
-0.666741
-0.641064
-0.614891
-0.640568
-0.641064
-0.616374
-0.590201
-0.614891
-0.616374
-0.592672
-0.566499
-0.590201
-0.592672
-0.569958
-0.543785
-0.566499
-0.569958
-0.548232
-0.522059
-0.543785
-0.548232
-0.527493
-0.50132
-0.522059
-0.527493
-0.507741
-0.481569
-0.50132
-0.507741
-0.488978
-0.462805
-0.481569
-0.488978
-0.471202
-0.445029
-0.462805
-0.471202
-0.454414
-0.428241
-0.445029
-0.454414
-0.438613
-0.41244
-0.428241
-0.438613
-0.4238
-0.397627
-0.41244
-0.4238
-0.409975
-0.383802
-0.397627
-0.409975
-0.397137
-0.370964
-0.383802
-0.397137
-0.385287
-0.359114
-0.370964
-0.385287
-0.374425
-0.348252
-0.359114
-0.374425
-0.36455
-0.338377
-0.348252
-0.36455
-0.355663
-0.32949
-0.338377
-0.355663
-0.347764
-0.321591
-0.32949
-0.347764
-0.340852
-0.314679
-0.321591
-0.340852
-0.334928
-0.308755
-0.314679
-0.334928
-0.329992
-0.303819
-0.308755
-0.329992
-0.326043
-0.29987
-0.303819
-0.326043
-0.323082
-0.296909
-0.29987
-0.323082
-0.321108
-0.294935
-0.296909
-0.321108
-0.320123
-0.29395
-0.294935
-0.320123
-0.320124
-0.293952
-0.29395
-0.320124
-0.321114
-0.294941
-0.293952
-0.321114
-0.323091
-0.296918
-0.294941
-0.323091
-0.326056
-0.299883
-0.296918
-0.326056
-0.330008
-0.303836
-0.299883
-0.330008
-0.334949
-0.308776
-0.303836
-0.334949
-0.340876
-0.314703
-0.308776
-0.340876
-0.347792
-0.321619
-0.314703
-0.347792
-0.355695
-0.329522
-0.321619
-0.355695
-0.364586
-0.338413
-0.329522
-0.364586
-0.374464
-0.348291
-0.338413
-0.374464
-0.38533
-0.359157
-0.348291
-0.38533
-0.397184
-0.371011
-0.359157
-0.397184
-0.410025
-0.383852
-0.371011
-0.410025
-0.423854
-0.397681
-0.383852
-0.423854
-0.438671
-0.412498
-0.397681
-0.438671
-0.454475
-0.428302
-0.412498
-0.454475
-0.471267
-0.445094
-0.428302
-0.471267
-0.489047
-0.462874
-0.445094
-0.489047
-0.507814
-0.481641
-0.462874
-0.507814
-0.527569
-0.501396
-0.481641
-0.527569
-0.548312
-0.522139
-0.501396
-0.548312
-0.570042
-0.543869
-0.522139
-0.570042
-0.59276
-0.566587
-0.543869
-0.59276
-0.616465
-0.590293
-0.566587
-0.616465
-0.641159
-0.614986
-0.590293
-0.641159
-0.666839
-0.640667
-0.614986
-0.666839
-0.693508
-0.667335
-0.640667
-0.693508
-0.721164
-0.694991
-0.667335
-0.721164
-0.749808
-0.723635
-0.694991
-0.749808
-0.779439
-0.753267
-0.723635
-0.779439
-0.810059
-0.783886
-0.753267
-0.810059
-0.841665
-0.815493
-0.783886
-0.841665
-0.87426
-0.848087
-0.815493
-0.87426
-0.907842
-0.881669
-0.848087
-0.907842
-0.942412
-0.916239
-0.881669
-0.942412
-0.977969
-0.951796
-0.916239
-0.977969
-1.01451
-0.988341
-0.951796
-1.01451
-1.05205
-1.02587
-0.988341
-1.05205
-1.09057
-1.06439
-1.02587
-1.09057
-1.13008
-1.1039
-1.06439
-1.13008
-1.17057
-1.1444
-1.1039
-1.17057
-1.21205
-1.18588
-1.1444
-1.21205
-1.25453
-1.22835
-1.18588
-1.25453
-1.29798
-1.27181
-1.22835
-1.29798
-1.34243
-1.31626
-1.27181
-1.34243
-1.38786
-1.36169
-1.31626
-1.38786
-1.43429
-1.40811
-1.36169
-1.43429
-1.4817
-1.45552
-1.40811
-1.4817
-1.53009
-1.50392
-1.45552
-1.53009
-1.57948
-1.5533
-1.50392
-1.57948
-1.62985
-1.60368
-1.5533
-1.62985
-1.68121
-1.65504
-1.60368
-1.68121
-1.73356
-1.70738
-1.65504
-1.73356
-1.78689
-1.76072
-1.70738
-1.78689
-1.84121
-1.81504
-1.76072
-1.84121
-1.89652
-1.87035
-1.81504
-1.89652
-1.95282
-1.92665
-1.87035
-1.95282
-2.01011
-1.98394
-1.92665
-2.01011
-2.06838
-2.04221
-1.98394
-2.06838
-2.12764
-2.10147
-2.04221
-2.12764
-2.18789
-2.16172
-2.10147
-2.18789
-2.24913
-2.22296
-2.16172
-2.24913
-2.31135
-2.28518
-2.22296
-2.31135
-2.37456
-2.34839
-2.28518
-2.37456
-2.43876
-2.41259
-2.34839
-2.43876
-2.50395
-2.47778
-2.41259
-2.50395
-2.57013
-2.54395
-2.47778
-2.57013
-2.63729
-2.61112
-2.54395
-2.63729
-2.70544
-2.67927
-2.61112
-2.70544
-2.77458
-2.7484
-2.67927
-2.77458
-2.8447
-2.81853
-2.7484
-2.8447
-2.91581
-2.88964
-2.81853
-2.91581
-2.98791
-2.96174
-2.88964
-2.98791
-3.061
-3.03483
-2.96174
-3.061
-3.13508
-3.10891
-3.03483
-3.13508
-3.21014
-3.18397
-3.10891
-3.21014
-3.28619
-3.26002
-3.18397
-3.28619
-3.36323
-3.33706
-3.26002
-3.36323
-3.44126
-3.41509
-3.33706
-3.44126
-3.52027
-3.4941
-3.41509
-3.52027
-3.60028
-3.5741
-3.4941
-3.60028
-3.68126
-3.65509
-3.5741
-3.68126
-3.76324
-3.73707
-3.65509
-3.76324
-3.84621
-3.82003
-3.73707
-3.84621
-3.93016
-3.90399
-3.82003
-3.93016
-4.0151
-3.98893
-3.90399
-4.0151
-4.10103
-4.07485
-3.98893
-1.40794
-1.36152
-1.33633
-1.38275
-1.36152
-1.31609
-1.2909
-1.33633
-1.31609
-1.27165
-1.24646
-1.2909
-1.27165
-1.22819
-1.20301
-1.24646
-1.22819
-1.18572
-1.16054
-1.20301
-1.18572
-1.14424
-1.11906
-1.16054
-1.14424
-1.10375
-1.07857
-1.11906
-1.10375
-1.06425
-1.03906
-1.07857
-1.06425
-1.02573
-1.00055
-1.03906
-1.02573
-0.988202
-0.963017
-1.00055
-0.988202
-0.95166
-0.926475
-0.963017
-0.95166
-0.916107
-0.890922
-0.926475
-0.916107
-0.881541
-0.856356
-0.890922
-0.881541
-0.847962
-0.822777
-0.856356
-0.847962
-0.815372
-0.790186
-0.822777
-0.815372
-0.783769
-0.758583
-0.790186
-0.783769
-0.753153
-0.727968
-0.758583
-0.753153
-0.723525
-0.69834
-0.727968
-0.723525
-0.694885
-0.6697
-0.69834
-0.694885
-0.667233
-0.642048
-0.6697
-0.667233
-0.640568
-0.615383
-0.642048
-0.640568
-0.614891
-0.589706
-0.615383
-0.614891
-0.590201
-0.565016
-0.589706
-0.590201
-0.566499
-0.541314
-0.565016
-0.566499
-0.543785
-0.5186
-0.541314
-0.543785
-0.522059
-0.496874
-0.5186
-0.522059
-0.50132
-0.476135
-0.496874
-0.50132
-0.481569
-0.456383
-0.476135
-0.481569
-0.462805
-0.43762
-0.456383
-0.462805
-0.445029
-0.419844
-0.43762
-0.445029
-0.428241
-0.403056
-0.419844
-0.428241
-0.41244
-0.387255
-0.403056
-0.41244
-0.397627
-0.372442
-0.387255
-0.397627
-0.383802
-0.358617
-0.372442
-0.383802
-0.370964
-0.345779
-0.358617
-0.370964
-0.359114
-0.333929
-0.345779
-0.359114
-0.348252
-0.323067
-0.333929
-0.348252
-0.338377
-0.313192
-0.323067
-0.338377
-0.32949
-0.304305
-0.313192
-0.32949
-0.321591
-0.296406
-0.304305
-0.321591
-0.314679
-0.289494
-0.296406
-0.314679
-0.308755
-0.28357
-0.289494
-0.308755
-0.303819
-0.278634
-0.28357
-0.303819
-0.29987
-0.274685
-0.278634
-0.29987
-0.296909
-0.271724
-0.274685
-0.296909
-0.294935
-0.26975
-0.271724
-0.294935
-0.29395
-0.268765
-0.26975
-0.29395
-0.293952
-0.268766
-0.268765
-0.293952
-0.294941
-0.269756
-0.268766
-0.294941
-0.296918
-0.271733
-0.269756
-0.296918
-0.299883
-0.274698
-0.271733
-0.299883
-0.303836
-0.27865
-0.274698
-0.303836
-0.308776
-0.28359
-0.27865
-0.308776
-0.314703
-0.289518
-0.28359
-0.314703
-0.321619
-0.296434
-0.289518
-0.321619
-0.329522
-0.304337
-0.296434
-0.329522
-0.338413
-0.313228
-0.304337
-0.338413
-0.348291
-0.323106
-0.313228
-0.348291
-0.359157
-0.333972
-0.323106
-0.359157
-0.371011
-0.345826
-0.333972
-0.371011
-0.383852
-0.358667
-0.345826
-0.383852
-0.397681
-0.372496
-0.358667
-0.397681
-0.412498
-0.387313
-0.372496
-0.412498
-0.428302
-0.403117
-0.387313
-0.428302
-0.445094
-0.419909
-0.403117
-0.445094
-0.462874
-0.437689
-0.419909
-0.462874
-0.481641
-0.456456
-0.437689
-0.481641
-0.501396
-0.476211
-0.456456
-0.501396
-0.522139
-0.496954
-0.476211
-0.522139
-0.543869
-0.518684
-0.496954
-0.543869
-0.566587
-0.541402
-0.518684
-0.566587
-0.590293
-0.565107
-0.541402
-0.590293
-0.614986
-0.589801
-0.565107
-0.614986
-0.640667
-0.615481
-0.589801
-0.640667
-0.667335
-0.64215
-0.615481
-0.667335
-0.694991
-0.669806
-0.64215
-0.694991
-0.723635
-0.69845
-0.669806
-0.723635
-0.753267
-0.728081
-0.69845
-0.753267
-0.783886
-0.758701
-0.728081
-0.783886
-0.815493
-0.790307
-0.758701
-0.815493
-0.848087
-0.822902
-0.790307
-0.848087
-0.881669
-0.856484
-0.822902
-0.881669
-0.916239
-0.891054
-0.856484
-0.916239
-0.951796
-0.926611
-0.891054
-0.951796
-0.988341
-0.963156
-0.926611
-0.988341
-1.02587
-1.00069
-0.963156
-1.02587
-1.06439
-1.03921
-1.00069
-1.06439
-1.1039
-1.07872
-1.03921
-1.1039
-1.1444
-1.11921
-1.07872
-1.1444
-1.18588
-1.1607
-1.11921
-1.18588
-1.22835
-1.20317
-1.1607
-1.22835
-1.27181
-1.24663
-1.20317
-1.27181
-1.31626
-1.29107
-1.24663
-1.31626
-1.36169
-1.33651
-1.29107
-1.36169
-1.40811
-1.38293
-1.33651
-1.40811
-1.45552
-1.43034
-1.38293
-1.45552
-1.50392
-1.47873
-1.43034
-1.50392
-1.5533
-1.52812
-1.47873
-1.5533
-1.60368
-1.57849
-1.52812
-1.60368
-1.65504
-1.62985
-1.57849
-1.65504
-1.70738
-1.6822
-1.62985
-1.70738
-1.76072
-1.73553
-1.6822
-1.76072
-1.81504
-1.78986
-1.73553
-1.81504
-1.87035
-1.84517
-1.78986
-1.87035
-1.92665
-1.90147
-1.84517
-1.92665
-1.98394
-1.95875
-1.90147
-1.98394
-2.04221
-2.01702
-1.95875
-2.04221
-2.10147
-2.07629
-2.01702
-2.10147
-2.16172
-2.13653
-2.07629
-2.16172
-2.22296
-2.19777
-2.13653
-2.22296
-2.28518
-2.25999
-2.19777
-2.28518
-2.34839
-2.32321
-2.25999
-2.34839
-2.41259
-2.38741
-2.32321
-2.41259
-2.47778
-2.45259
-2.38741
-2.47778
-2.54395
-2.51877
-2.45259
-2.54395
-2.61112
-2.58593
-2.51877
-2.61112
-2.67927
-2.65408
-2.58593
-2.67927
-2.7484
-2.72322
-2.65408
-2.7484
-2.81853
-2.79334
-2.72322
-2.81853
-2.88964
-2.86446
-2.79334
-2.88964
-2.96174
-2.93656
-2.86446
-2.96174
-3.03483
-3.00964
-2.93656
-3.03483
-3.10891
-3.08372
-3.00964
-3.10891
-3.18397
-3.15878
-3.08372
-3.18397
-3.26002
-3.23484
-3.15878
-3.26002
-3.33706
-3.31187
-3.23484
-3.33706
-3.41509
-3.3899
-3.31187
-3.41509
-3.4941
-3.46892
-3.3899
-3.4941
-3.5741
-3.54892
-3.46892
-3.5741
-3.65509
-3.62991
-3.54892
-3.65509
-3.73707
-3.71188
-3.62991
-3.73707
-3.82003
-3.79485
-3.71188
-3.82003
-3.90399
-3.8788
-3.79485
-3.90399
-3.98893
-3.96374
-3.8788
-3.98893
-4.07485
-4.04967
-3.96374
-1.38275
-1.33633
-1.31214
-1.35855
-1.33633
-1.2909
-1.26671
-1.31214
-1.2909
-1.24646
-1.22226
-1.26671
-1.24646
-1.20301
-1.17881
-1.22226
-1.20301
-1.16054
-1.13634
-1.17881
-1.16054
-1.11906
-1.09486
-1.13634
-1.11906
-1.07857
-1.05437
-1.09486
-1.07857
-1.03906
-1.01486
-1.05437
-1.03906
-1.00055
-0.976348
-1.01486
-1.00055
-0.963017
-0.938819
-0.976348
-0.963017
-0.926475
-0.902278
-0.938819
-0.926475
-0.890922
-0.866724
-0.902278
-0.890922
-0.856356
-0.832158
-0.866724
-0.856356
-0.822777
-0.79858
-0.832158
-0.822777
-0.790186
-0.765989
-0.79858
-0.790186
-0.758583
-0.734386
-0.765989
-0.758583
-0.727968
-0.70377
-0.734386
-0.727968
-0.69834
-0.674143
-0.70377
-0.69834
-0.6697
-0.645503
-0.674143
-0.6697
-0.642048
-0.61785
-0.645503
-0.642048
-0.615383
-0.591185
-0.61785
-0.615383
-0.589706
-0.565508
-0.591185
-0.589706
-0.565016
-0.540819
-0.565508
-0.565016
-0.541314
-0.517117
-0.540819
-0.541314
-0.5186
-0.494403
-0.517117
-0.5186
-0.496874
-0.472676
-0.494403
-0.496874
-0.476135
-0.451937
-0.472676
-0.476135
-0.456383
-0.432186
-0.451937
-0.456383
-0.43762
-0.413422
-0.432186
-0.43762
-0.419844
-0.395646
-0.413422
-0.419844
-0.403056
-0.378858
-0.395646
-0.403056
-0.387255
-0.363058
-0.378858
-0.387255
-0.372442
-0.348245
-0.363058
-0.372442
-0.358617
-0.334419
-0.348245
-0.358617
-0.345779
-0.321582
-0.334419
-0.345779
-0.333929
-0.309732
-0.321582
-0.333929
-0.323067
-0.298869
-0.309732
-0.323067
-0.313192
-0.288995
-0.298869
-0.313192
-0.304305
-0.280108
-0.288995
-0.304305
-0.296406
-0.272208
-0.280108
-0.296406
-0.289494
-0.265297
-0.272208
-0.289494
-0.28357
-0.259372
-0.265297
-0.28357
-0.278634
-0.254436
-0.259372
-0.278634
-0.274685
-0.250487
-0.254436
-0.274685
-0.271724
-0.247526
-0.250487
-0.271724
-0.26975
-0.245553
-0.247526
-0.26975
-0.268765
-0.244567
-0.245553
-0.268765
-0.268766
-0.244569
-0.244567
-0.268766
-0.269756
-0.245558
-0.244569
-0.269756
-0.271733
-0.247536
-0.245558
-0.271733
-0.274698
-0.2505
-0.247536
-0.274698
-0.27865
-0.254453
-0.2505
-0.27865
-0.28359
-0.259393
-0.254453
-0.28359
-0.289518
-0.265321
-0.259393
-0.289518
-0.296434
-0.272236
-0.265321
-0.296434
-0.304337
-0.280139
-0.272236
-0.304337
-0.313228
-0.28903
-0.280139
-0.313228
-0.323106
-0.298908
-0.28903
-0.323106
-0.333972
-0.309774
-0.298908
-0.333972
-0.345826
-0.321628
-0.309774
-0.345826
-0.358667
-0.33447
-0.321628
-0.358667
-0.372496
-0.348299
-0.33447
-0.372496
-0.387313
-0.363115
-0.348299
-0.387313
-0.403117
-0.37892
-0.363115
-0.403117
-0.419909
-0.395712
-0.37892
-0.419909
-0.437689
-0.413491
-0.395712
-0.437689
-0.456456
-0.432259
-0.413491
-0.456456
-0.476211
-0.452013
-0.432259
-0.476211
-0.496954
-0.472756
-0.452013
-0.496954
-0.518684
-0.494486
-0.472756
-0.518684
-0.541402
-0.517204
-0.494486
-0.541402
-0.565107
-0.54091
-0.517204
-0.565107
-0.589801
-0.565603
-0.54091
-0.589801
-0.615481
-0.591284
-0.565603
-0.615481
-0.64215
-0.617952
-0.591284
-0.64215
-0.669806
-0.645609
-0.617952
-0.669806
-0.69845
-0.674252
-0.645609
-0.69845
-0.728081
-0.703884
-0.674252
-0.728081
-0.758701
-0.734503
-0.703884
-0.758701
-0.790307
-0.76611
-0.734503
-0.790307
-0.822902
-0.798704
-0.76611
-0.822902
-0.856484
-0.832286
-0.798704
-0.856484
-0.891054
-0.866856
-0.832286
-0.891054
-0.926611
-0.902414
-0.866856
-0.926611
-0.963156
-0.938959
-0.902414
-0.963156
-1.00069
-0.976491
-0.938959
-1.00069
-1.03921
-1.01501
-0.976491
-1.03921
-1.07872
-1.05452
-1.01501
-1.07872
-1.11921
-1.09502
-1.05452
-1.11921
-1.1607
-1.1365
-1.09502
-1.1607
-1.20317
-1.17897
-1.1365
-1.20317
-1.24663
-1.22243
-1.17897
-1.24663
-1.29107
-1.26687
-1.22243
-1.29107
-1.33651
-1.31231
-1.26687
-1.33651
-1.38293
-1.35873
-1.31231
-1.38293
-1.43034
-1.40614
-1.35873
-1.43034
-1.47873
-1.45454
-1.40614
-1.47873
-1.52812
-1.50392
-1.45454
-1.52812
-1.57849
-1.55429
-1.50392
-1.57849
-1.62985
-1.60565
-1.55429
-1.62985
-1.6822
-1.658
-1.60565
-1.6822
-1.73553
-1.71134
-1.658
-1.73553
-1.78986
-1.76566
-1.71134
-1.78986
-1.84517
-1.82097
-1.76566
-1.84517
-1.90147
-1.87727
-1.82097
-1.90147
-1.95875
-1.93455
-1.87727
-1.95875
-2.01702
-1.99283
-1.93455
-2.01702
-2.07629
-2.05209
-1.99283
-2.07629
-2.13653
-2.11234
-2.05209
-2.13653
-2.19777
-2.17357
-2.11234
-2.19777
-2.25999
-2.2358
-2.17357
-2.25999
-2.32321
-2.29901
-2.2358
-2.32321
-2.38741
-2.36321
-2.29901
-2.38741
-2.45259
-2.4284
-2.36321
-2.45259
-2.51877
-2.49457
-2.4284
-2.51877
-2.58593
-2.56173
-2.49457
-2.58593
-2.65408
-2.62988
-2.56173
-2.65408
-2.72322
-2.69902
-2.62988
-2.72322
-2.79334
-2.76915
-2.69902
-2.79334
-2.86446
-2.84026
-2.76915
-2.86446
-2.93656
-2.91236
-2.84026
-2.93656
-3.00964
-2.98545
-2.91236
-3.00964
-3.08372
-3.05952
-2.98545
-3.08372
-3.15878
-3.13459
-3.05952
-3.15878
-3.23484
-3.21064
-3.13459
-3.23484
-3.31187
-3.28768
-3.21064
-3.31187
-3.3899
-3.3657
-3.28768
-3.3899
-3.46892
-3.44472
-3.3657
-3.46892
-3.54892
-3.52472
-3.44472
-3.54892
-3.62991
-3.60571
-3.52472
-3.62991
-3.71188
-3.68769
-3.60571
-3.71188
-3.79485
-3.77065
-3.68769
-3.79485
-3.8788
-3.8546
-3.77065
-3.8788
-3.96374
-3.93954
-3.8546
-3.96374
-4.04967
-4.02547
-3.93954
-1.35855
-1.31214
-1.28893
-1.33534
-1.31214
-1.26671
-1.2435
-1.28893
-1.26671
-1.22226
-1.19905
-1.2435
-1.22226
-1.17881
-1.1556
-1.19905
-1.17881
-1.13634
-1.11313
-1.1556
-1.13634
-1.09486
-1.07165
-1.11313
-1.09486
-1.05437
-1.03116
-1.07165
-1.05437
-1.01486
-0.991655
-1.03116
-1.01486
-0.976348
-0.953138
-0.991655
-0.976348
-0.938819
-0.915609
-0.953138
-0.938819
-0.902278
-0.879068
-0.915609
-0.902278
-0.866724
-0.843514
-0.879068
-0.866724
-0.832158
-0.808948
-0.843514
-0.832158
-0.79858
-0.77537
-0.808948
-0.79858
-0.765989
-0.742779
-0.77537
-0.765989
-0.734386
-0.711176
-0.742779
-0.734386
-0.70377
-0.680561
-0.711176
-0.70377
-0.674143
-0.650933
-0.680561
-0.674143
-0.645503
-0.622293
-0.650933
-0.645503
-0.61785
-0.59464
-0.622293
-0.61785
-0.591185
-0.567975
-0.59464
-0.591185
-0.565508
-0.542298
-0.567975
-0.565508
-0.540819
-0.517609
-0.542298
-0.540819
-0.517117
-0.493907
-0.517609
-0.517117
-0.494403
-0.471193
-0.493907
-0.494403
-0.472676
-0.449466
-0.471193
-0.472676
-0.451937
-0.428727
-0.449466
-0.451937
-0.432186
-0.408976
-0.428727
-0.432186
-0.413422
-0.390212
-0.408976
-0.413422
-0.395646
-0.372437
-0.390212
-0.395646
-0.378858
-0.355648
-0.372437
-0.378858
-0.363058
-0.339848
-0.355648
-0.363058
-0.348245
-0.325035
-0.339848
-0.348245
-0.334419
-0.311209
-0.325035
-0.334419
-0.321582
-0.298372
-0.311209
-0.321582
-0.309732
-0.286522
-0.298372
-0.309732
-0.298869
-0.275659
-0.286522
-0.298869
-0.288995
-0.265785
-0.275659
-0.288995
-0.280108
-0.256898
-0.265785
-0.280108
-0.272208
-0.248998
-0.256898
-0.272208
-0.265297
-0.242087
-0.248998
-0.265297
-0.259372
-0.236163
-0.242087
-0.259372
-0.254436
-0.231226
-0.236163
-0.254436
-0.250487
-0.227277
-0.231226
-0.250487
-0.247526
-0.224316
-0.227277
-0.247526
-0.245553
-0.222343
-0.224316
-0.245553
-0.244567
-0.221357
-0.222343
-0.244567
-0.244569
-0.221359
-0.221357
-0.244569
-0.245558
-0.222348
-0.221359
-0.245558
-0.247536
-0.224326
-0.222348
-0.247536
-0.2505
-0.22729
-0.224326
-0.2505
-0.254453
-0.231243
-0.22729
-0.254453
-0.259393
-0.236183
-0.231243
-0.259393
-0.265321
-0.242111
-0.236183
-0.265321
-0.272236
-0.249026
-0.242111
-0.272236
-0.280139
-0.256929
-0.249026
-0.280139
-0.28903
-0.26582
-0.256929
-0.28903
-0.298908
-0.275699
-0.26582
-0.298908
-0.309774
-0.286565
-0.275699
-0.309774
-0.321628
-0.298418
-0.286565
-0.321628
-0.33447
-0.31126
-0.298418
-0.33447
-0.348299
-0.325089
-0.31126
-0.348299
-0.363115
-0.339905
-0.325089
-0.363115
-0.37892
-0.35571
-0.339905
-0.37892
-0.395712
-0.372502
-0.35571
-0.395712
-0.413491
-0.390281
-0.372502
-0.413491
-0.432259
-0.409049
-0.390281
-0.432259
-0.452013
-0.428804
-0.409049
-0.452013
-0.472756
-0.449546
-0.428804
-0.472756
-0.494486
-0.471276
-0.449546
-0.494486
-0.517204
-0.493994
-0.471276
-0.517204
-0.54091
-0.5177
-0.493994
-0.54091
-0.565603
-0.542393
-0.5177
-0.565603
-0.591284
-0.568074
-0.542393
-0.591284
-0.617952
-0.594743
-0.568074
-0.617952
-0.645609
-0.622399
-0.594743
-0.645609
-0.674252
-0.651043
-0.622399
-0.674252
-0.703884
-0.680674
-0.651043
-0.703884
-0.734503
-0.711293
-0.680674
-0.734503
-0.76611
-0.7429
-0.711293
-0.76611
-0.798704
-0.775494
-0.7429
-0.798704
-0.832286
-0.809077
-0.775494
-0.832286
-0.866856
-0.843646
-0.809077
-0.866856
-0.902414
-0.879204
-0.843646
-0.902414
-0.938959
-0.915749
-0.879204
-0.938959
-0.976491
-0.953282
-0.915749
-0.976491
-1.01501
-0.991802
-0.953282
-1.01501
-1.05452
-1.03131
-0.991802
-1.05452
-1.09502
-1.07181
-1.03131
-1.09502
-1.1365
-1.11329
-1.07181
-1.1365
-1.17897
-1.15576
-1.11329
-1.17897
-1.22243
-1.19922
-1.15576
-1.22243
-1.26687
-1.24366
-1.19922
-1.26687
-1.31231
-1.2891
-1.24366
-1.31231
-1.35873
-1.33552
-1.2891
-1.35873
-1.40614
-1.38293
-1.33552
-1.40614
-1.45454
-1.43133
-1.38293
-1.45454
-1.50392
-1.48071
-1.43133
-1.50392
-1.55429
-1.53108
-1.48071
-1.55429
-1.60565
-1.58244
-1.53108
-1.60565
-1.658
-1.63479
-1.58244
-1.658
-1.71134
-1.68813
-1.63479
-1.71134
-1.76566
-1.74245
-1.68813
-1.76566
-1.82097
-1.79776
-1.74245
-1.82097
-1.87727
-1.85406
-1.79776
-1.87727
-1.93455
-1.91134
-1.85406
-1.93455
-1.99283
-1.96962
-1.91134
-1.99283
-2.05209
-2.02888
-1.96962
-2.05209
-2.11234
-2.08913
-2.02888
-2.11234
-2.17357
-2.15036
-2.08913
-2.17357
-2.2358
-2.21259
-2.15036
-2.2358
-2.29901
-2.2758
-2.21259
-2.29901
-2.36321
-2.34
-2.2758
-2.36321
-2.4284
-2.40519
-2.34
-2.4284
-2.49457
-2.47136
-2.40519
-2.49457
-2.56173
-2.53852
-2.47136
-2.56173
-2.62988
-2.60667
-2.53852
-2.62988
-2.69902
-2.67581
-2.60667
-2.69902
-2.76915
-2.74594
-2.67581
-2.76915
-2.84026
-2.81705
-2.74594
-2.84026
-2.91236
-2.88915
-2.81705
-2.91236