# vtk DataFile Version 1.0
unstructured Grid
ASCII
DATASET UNSTRUCTURED_GRID
POINTS 23440 float 
0 0	 0.0
0.0222222 0	 0.0
0.0222222 0.0222222	 0.0
0 0.0222222	 0.0
0.0222222 0	 0.0
0.0444444 0	 0.0
0.0444444 0.0222222	 0.0
0.0222222 0.0222222	 0.0
0.0444444 0	 0.0
0.0666667 0	 0.0
0.0666667 0.0222222	 0.0
0.0444444 0.0222222	 0.0
0.0666667 0	 0.0
0.0888889 0	 0.0
0.0888889 0.0222222	 0.0
0.0666667 0.0222222	 0.0
0.0888889 0	 0.0
0.111111 0	 0.0
0.111111 0.0222222	 0.0
0.0888889 0.0222222	 0.0
0.111111 0	 0.0
0.133333 0	 0.0
0.133333 0.0222222	 0.0
0.111111 0.0222222	 0.0
0.133333 0	 0.0
0.155556 0	 0.0
0.155556 0.0222222	 0.0
0.133333 0.0222222	 0.0
0.155556 0	 0.0
0.177778 0	 0.0
0.177778 0.0222222	 0.0
0.155556 0.0222222	 0.0
0.177778 0	 0.0
0.2 0	 0.0
0.2 0.0222222	 0.0
0.177778 0.0222222	 0.0
0.2 0	 0.0
0.222222 0	 0.0
0.222222 0.0222222	 0.0
0.2 0.0222222	 0.0
0.222222 0	 0.0
0.244444 0	 0.0
0.244444 0.0222222	 0.0
0.222222 0.0222222	 0.0
0.244444 0	 0.0
0.266667 0	 0.0
0.266667 0.0222222	 0.0
0.244444 0.0222222	 0.0
0.266667 0	 0.0
0.288889 0	 0.0
0.288889 0.0222222	 0.0
0.266667 0.0222222	 0.0
0.288889 0	 0.0
0.311111 0	 0.0
0.311111 0.0222222	 0.0
0.288889 0.0222222	 0.0
0.311111 0	 0.0
0.333333 0	 0.0
0.333333 0.0222222	 0.0
0.311111 0.0222222	 0.0
0.333333 0	 0.0
0.355556 0	 0.0
0.355556 0.0222222	 0.0
0.333333 0.0222222	 0.0
0.355556 0	 0.0
0.377778 0	 0.0
0.377778 0.0222222	 0.0
0.355556 0.0222222	 0.0
0.377778 0	 0.0
0.4 0	 0.0
0.4 0.0222222	 0.0
0.377778 0.0222222	 0.0
0.4 0	 0.0
0.422222 0	 0.0
0.422222 0.0222222	 0.0
0.4 0.0222222	 0.0
0.422222 0	 0.0
0.444444 0	 0.0
0.444444 0.0222222	 0.0
0.422222 0.0222222	 0.0
0.444444 0	 0.0
0.466667 0	 0.0
0.466667 0.0222222	 0.0
0.444444 0.0222222	 0.0
0.466667 0	 0.0
0.488889 0	 0.0
0.488889 0.0222222	 0.0
0.466667 0.0222222	 0.0
0.488889 0	 0.0
0.511111 0	 0.0
0.511111 0.0222222	 0.0
0.488889 0.0222222	 0.0
0.511111 0	 0.0
0.533333 0	 0.0
0.533333 0.0222222	 0.0
0.511111 0.0222222	 0.0
0.533333 0	 0.0
0.555556 0	 0.0
0.555556 0.0222222	 0.0
0.533333 0.0222222	 0.0
0.555556 0	 0.0
0.577778 0	 0.0
0.577778 0.0222222	 0.0
0.555556 0.0222222	 0.0
0.577778 0	 0.0
0.6 0	 0.0
0.6 0.0222222	 0.0
0.577778 0.0222222	 0.0
0.6 0	 0.0
0.622222 0	 0.0
0.622222 0.0222222	 0.0
0.6 0.0222222	 0.0
0.622222 0	 0.0
0.644444 0	 0.0
0.644444 0.0222222	 0.0
0.622222 0.0222222	 0.0
0.644444 0	 0.0
0.666667 0	 0.0
0.666667 0.0222222	 0.0
0.644444 0.0222222	 0.0
0.666667 0	 0.0
0.688889 0	 0.0
0.688889 0.0222222	 0.0
0.666667 0.0222222	 0.0
0.688889 0	 0.0
0.711111 0	 0.0
0.711111 0.0222222	 0.0
0.688889 0.0222222	 0.0
0.711111 0	 0.0
0.733333 0	 0.0
0.733333 0.0222222	 0.0
0.711111 0.0222222	 0.0
0.733333 0	 0.0
0.755556 0	 0.0
0.755556 0.0222222	 0.0
0.733333 0.0222222	 0.0
0.755556 0	 0.0
0.777778 0	 0.0
0.777778 0.0222222	 0.0
0.755556 0.0222222	 0.0
0.777778 0	 0.0
0.8 0	 0.0
0.8 0.0222222	 0.0
0.777778 0.0222222	 0.0
0.8 0	 0.0
0.822222 0	 0.0
0.822222 0.0222222	 0.0
0.8 0.0222222	 0.0
0.822222 0	 0.0
0.844444 0	 0.0
0.844444 0.0222222	 0.0
0.822222 0.0222222	 0.0
0.844444 0	 0.0
0.866667 0	 0.0
0.866667 0.0222222	 0.0
0.844444 0.0222222	 0.0
0.866667 0	 0.0
0.888889 0	 0.0
0.888889 0.0222222	 0.0
0.866667 0.0222222	 0.0
0.888889 0	 0.0
0.911111 0	 0.0
0.911111 0.0222222	 0.0
0.888889 0.0222222	 0.0
0.911111 0	 0.0
0.933333 0	 0.0
0.933333 0.0222222	 0.0
0.911111 0.0222222	 0.0
0.933333 0	 0.0
0.955556 0	 0.0
0.955556 0.0222222	 0.0
0.933333 0.0222222	 0.0
0.955556 0	 0.0
0.977778 0	 0.0
0.977778 0.0222222	 0.0
0.955556 0.0222222	 0.0
0.977778 0	 0.0
1 0	 0.0
1 0.0222222	 0.0
0.977778 0.0222222	 0.0
1 0	 0.0
1.02222 0	 0.0
1.02222 0.0222222	 0.0
1 0.0222222	 0.0
1.02222 0	 0.0
1.04444 0	 0.0
1.04444 0.0222222	 0.0
1.02222 0.0222222	 0.0
1.04444 0	 0.0
1.06667 0	 0.0
1.06667 0.0222222	 0.0
1.04444 0.0222222	 0.0
1.06667 0	 0.0
1.08889 0	 0.0
1.08889 0.0222222	 0.0
1.06667 0.0222222	 0.0
1.08889 0	 0.0
1.11111 0	 0.0
1.11111 0.0222222	 0.0
1.08889 0.0222222	 0.0
1.11111 0	 0.0
1.13333 0	 0.0
1.13333 0.0222222	 0.0
1.11111 0.0222222	 0.0
1.13333 0	 0.0
1.15556 0	 0.0
1.15556 0.0222222	 0.0
1.13333 0.0222222	 0.0
1.15556 0	 0.0
1.17778 0	 0.0
1.17778 0.0222222	 0.0
1.15556 0.0222222	 0.0
1.17778 0	 0.0
1.2 0	 0.0
1.2 0.0222222	 0.0
1.17778 0.0222222	 0.0
1.2 0	 0.0
1.22222 0	 0.0
1.22222 0.0222222	 0.0
1.2 0.0222222	 0.0
1.22222 0	 0.0
1.24444 0	 0.0
1.24444 0.0222222	 0.0
1.22222 0.0222222	 0.0
1.24444 0	 0.0
1.26667 0	 0.0
1.26667 0.0222222	 0.0
1.24444 0.0222222	 0.0
1.26667 0	 0.0
1.28889 0	 0.0
1.28889 0.0222222	 0.0
1.26667 0.0222222	 0.0
1.28889 0	 0.0
1.31111 0	 0.0
1.31111 0.0222222	 0.0
1.28889 0.0222222	 0.0
1.31111 0	 0.0
1.33333 0	 0.0
1.33333 0.0222222	 0.0
1.31111 0.0222222	 0.0
1.33333 0	 0.0
1.35556 0	 0.0
1.35556 0.0222222	 0.0
1.33333 0.0222222	 0.0
1.35556 0	 0.0
1.37778 0	 0.0
1.37778 0.0222222	 0.0
1.35556 0.0222222	 0.0
1.37778 0	 0.0
1.4 0	 0.0
1.4 0.0222222	 0.0
1.37778 0.0222222	 0.0
1.4 0	 0.0
1.42222 0	 0.0
1.42222 0.0222222	 0.0
1.4 0.0222222	 0.0
1.42222 0	 0.0
1.44444 0	 0.0
1.44444 0.0222222	 0.0
1.42222 0.0222222	 0.0
1.44444 0	 0.0
1.46667 0	 0.0
1.46667 0.0222222	 0.0
1.44444 0.0222222	 0.0
1.46667 0	 0.0
1.48889 0	 0.0
1.48889 0.0222222	 0.0
1.46667 0.0222222	 0.0
1.48889 0	 0.0
1.51111 0	 0.0
1.51111 0.0222222	 0.0
1.48889 0.0222222	 0.0
1.51111 0	 0.0
1.53333 0	 0.0
1.53333 0.0222222	 0.0
1.51111 0.0222222	 0.0
1.53333 0	 0.0
1.55556 0	 0.0
1.55556 0.0222222	 0.0
1.53333 0.0222222	 0.0
1.55556 0	 0.0
1.57778 0	 0.0
1.57778 0.0222222	 0.0
1.55556 0.0222222	 0.0
1.57778 0	 0.0
1.6 0	 0.0
1.6 0.0222222	 0.0
1.57778 0.0222222	 0.0
1.6 0	 0.0
1.62222 0	 0.0
1.62222 0.0222222	 0.0
1.6 0.0222222	 0.0
1.62222 0	 0.0
1.64444 0	 0.0
1.64444 0.0222222	 0.0
1.62222 0.0222222	 0.0
1.64444 0	 0.0
1.66667 0	 0.0
1.66667 0.0222222	 0.0
1.64444 0.0222222	 0.0
1.66667 0	 0.0
1.68889 0	 0.0
1.68889 0.0222222	 0.0
1.66667 0.0222222	 0.0
1.68889 0	 0.0
1.71111 0	 0.0
1.71111 0.0222222	 0.0
1.68889 0.0222222	 0.0
1.71111 0	 0.0
1.73333 0	 0.0
1.73333 0.0222222	 0.0
1.71111 0.0222222	 0.0
1.73333 0	 0.0
1.75556 0	 0.0
1.75556 0.0222222	 0.0
1.73333 0.0222222	 0.0
1.75556 0	 0.0
1.77778 0	 0.0
1.77778 0.0222222	 0.0
1.75556 0.0222222	 0.0
1.77778 0	 0.0
1.8 0	 0.0
1.8 0.0222222	 0.0
1.77778 0.0222222	 0.0
1.8 0	 0.0
1.82222 0	 0.0
1.82222 0.0222222	 0.0
1.8 0.0222222	 0.0
1.82222 0	 0.0
1.84444 0	 0.0
1.84444 0.0222222	 0.0
1.82222 0.0222222	 0.0
1.84444 0	 0.0
1.86667 0	 0.0
1.86667 0.0222222	 0.0
1.84444 0.0222222	 0.0
1.86667 0	 0.0
1.88889 0	 0.0
1.88889 0.0222222	 0.0
1.86667 0.0222222	 0.0
1.88889 0	 0.0
1.91111 0	 0.0
1.91111 0.0222222	 0.0
1.88889 0.0222222	 0.0
1.91111 0	 0.0
1.93333 0	 0.0
1.93333 0.0222222	 0.0
1.91111 0.0222222	 0.0
1.93333 0	 0.0
1.95556 0	 0.0
1.95556 0.0222222	 0.0
1.93333 0.0222222	 0.0
1.95556 0	 0.0
1.97778 0	 0.0
1.97778 0.0222222	 0.0
1.95556 0.0222222	 0.0
1.97778 0	 0.0
2 0	 0.0
2 0.0222222	 0.0
1.97778 0.0222222	 0.0
2 0	 0.0
2.02222 0	 0.0
2.02222 0.0222222	 0.0
2 0.0222222	 0.0
2.02222 0	 0.0
2.04444 0	 0.0
2.04444 0.0222222	 0.0
2.02222 0.0222222	 0.0
2.04444 0	 0.0
2.06667 0	 0.0
2.06667 0.0222222	 0.0
2.04444 0.0222222	 0.0
2.06667 0	 0.0
2.08889 0	 0.0
2.08889 0.0222222	 0.0
2.06667 0.0222222	 0.0
2.08889 0	 0.0
2.11111 0	 0.0
2.11111 0.0222222	 0.0
2.08889 0.0222222	 0.0
2.11111 0	 0.0
2.13333 0	 0.0
2.13333 0.0222222	 0.0
2.11111 0.0222222	 0.0
2.13333 0	 0.0
2.15556 0	 0.0
2.15556 0.0222222	 0.0
2.13333 0.0222222	 0.0
2.15556 0	 0.0
2.17778 0	 0.0
2.17778 0.0222222	 0.0
2.15556 0.0222222	 0.0
2.17778 0	 0.0
2.2 0	 0.0
2.2 0.0222222	 0.0
2.17778 0.0222222	 0.0
2.2 0	 0.0
2.22222 0	 0.0
2.22222 0.0222222	 0.0
2.2 0.0222222	 0.0
2.22222 0	 0.0
2.24444 0	 0.0
2.24444 0.0222222	 0.0
2.22222 0.0222222	 0.0
2.24444 0	 0.0
2.26667 0	 0.0
2.26667 0.0222222	 0.0
2.24444 0.0222222	 0.0
2.26667 0	 0.0
2.28889 0	 0.0
2.28889 0.0222222	 0.0
2.26667 0.0222222	 0.0
2.28889 0	 0.0
2.31111 0	 0.0
2.31111 0.0222222	 0.0
2.28889 0.0222222	 0.0
2.31111 0	 0.0
2.33333 0	 0.0
2.33333 0.0222222	 0.0
2.31111 0.0222222	 0.0
2.33333 0	 0.0
2.35556 0	 0.0
2.35556 0.0222222	 0.0
2.33333 0.0222222	 0.0
2.35556 0	 0.0
2.37778 0	 0.0
2.37778 0.0222222	 0.0
2.35556 0.0222222	 0.0
2.37778 0	 0.0
2.4 0	 0.0
2.4 0.0222222	 0.0
2.37778 0.0222222	 0.0
2.4 0	 0.0
2.42222 0	 0.0
2.42222 0.0222222	 0.0
2.4 0.0222222	 0.0
2.42222 0	 0.0
2.44444 0	 0.0
2.44444 0.0222222	 0.0
2.42222 0.0222222	 0.0
2.44444 0	 0.0
2.46667 0	 0.0
2.46667 0.0222222	 0.0
2.44444 0.0222222	 0.0
2.46667 0	 0.0
2.48889 0	 0.0
2.48889 0.0222222	 0.0
2.46667 0.0222222	 0.0
2.48889 0	 0.0
2.51111 0	 0.0
2.51111 0.0222222	 0.0
2.48889 0.0222222	 0.0
2.51111 0	 0.0
2.53333 0	 0.0
2.53333 0.0222222	 0.0
2.51111 0.0222222	 0.0
2.53333 0	 0.0
2.55556 0	 0.0
2.55556 0.0222222	 0.0
2.53333 0.0222222	 0.0
2.55556 0	 0.0
2.57778 0	 0.0
2.57778 0.0222222	 0.0
2.55556 0.0222222	 0.0
2.57778 0	 0.0
2.6 0	 0.0
2.6 0.0222222	 0.0
2.57778 0.0222222	 0.0
2.6 0	 0.0
2.62222 0	 0.0
2.62222 0.0222222	 0.0
2.6 0.0222222	 0.0
2.62222 0	 0.0
2.64444 0	 0.0
2.64444 0.0222222	 0.0
2.62222 0.0222222	 0.0
2.64444 0	 0.0
2.66667 0	 0.0
2.66667 0.0222222	 0.0
2.64444 0.0222222	 0.0
2.66667 0	 0.0
2.68889 0	 0.0
2.68889 0.0222222	 0.0
2.66667 0.0222222	 0.0
2.68889 0	 0.0
2.71111 0	 0.0
2.71111 0.0222222	 0.0
2.68889 0.0222222	 0.0
2.71111 0	 0.0
2.73333 0	 0.0
2.73333 0.0222222	 0.0
2.71111 0.0222222	 0.0
2.73333 0	 0.0
2.75556 0	 0.0
2.75556 0.0222222	 0.0
2.73333 0.0222222	 0.0
2.75556 0	 0.0
2.77778 0	 0.0
2.77778 0.0222222	 0.0
2.75556 0.0222222	 0.0
2.77778 0	 0.0
2.8 0	 0.0
2.8 0.0222222	 0.0
2.77778 0.0222222	 0.0
2.8 0	 0.0
2.82222 0	 0.0
2.82222 0.0222222	 0.0
2.8 0.0222222	 0.0
2.82222 0	 0.0
2.84444 0	 0.0
2.84444 0.0222222	 0.0
2.82222 0.0222222	 0.0
2.84444 0	 0.0
2.86667 0	 0.0
2.86667 0.0222222	 0.0
2.84444 0.0222222	 0.0
2.86667 0	 0.0
2.88889 0	 0.0
2.88889 0.0222222	 0.0
2.86667 0.0222222	 0.0
2.88889 0	 0.0
2.91111 0	 0.0
2.91111 0.0222222	 0.0
2.88889 0.0222222	 0.0
2.91111 0	 0.0
[...]
POINT_DATA 23440
SCALARS levelset_first float
LOOKUP_TABLE default
-5.81821
-5.71449
-5.68832
-5.79204
-5.71449
-5.61176
-5.58559
-5.68832
-5.61176
-5.51001
-5.48384
-5.58559
-5.51001
-5.40926
-5.38308
-5.48384
-5.40926
-5.30949
-5.28331
-5.38308
-5.30949
-5.2107
-5.18453
-5.28331
-5.2107
-5.11291
-5.08674
-5.18453
-5.11291
-5.0161
-4.98993
-5.08674
-5.0161
-4.92028
-4.89411
-4.98993
-4.92028
-4.82545
-4.79928
-4.89411
-4.82545
-4.73161
-4.70543
-4.79928
-4.73161
-4.63875
-4.61258
-4.70543
-4.63875
-4.54688
-4.52071
-4.61258
-4.54688
-4.456
-4.42983
-4.52071
-4.456
-4.36611
-4.33993
-4.42983
-4.36611
-4.2772
-4.25103
-4.33993
-4.2772
-4.18928
-4.16311
-4.25103
-4.18928
-4.10235
-4.07618
-4.16311
-4.10235
-4.01641
-3.99024
-4.07618
-4.01641
-3.93145
-3.90528
-3.99024
-3.93145
-3.84749
-3.82131
-3.90528
-3.84749
-3.76451
-3.73833
-3.82131
-3.76451
-3.68251
-3.65634
-3.73833
-3.68251
-3.60151
-3.57534
-3.65634
-3.60151
-3.52149
-3.49532
-3.57534
-3.52149
-3.44246
-3.41629
-3.49532
-3.44246
-3.36442
-3.33825
-3.41629
-3.36442
-3.28737
-3.26119
-3.33825
-3.28737
-3.2113
-3.18513
-3.26119
-3.2113
-3.13622
-3.11005
-3.18513
-3.13622
-3.06213
-3.03596
-3.11005
-3.06213
-2.98903
-2.96285
-3.03596
-2.98903
-2.91691
-2.89074
-2.96285
-2.91691
-2.84578
-2.81961
-2.89074
-2.84578
-2.77564
-2.74947
-2.81961
-2.77564
-2.70649
-2.68032
-2.74947
-2.70649
-2.63833
-2.61215
-2.68032
-2.63833
-2.57115
-2.54498
-2.61215
-2.57115
-2.50496
-2.47879
-2.54498
-2.50496
-2.43976
-2.41358
-2.47879
-2.43976
-2.37554
-2.34937
-2.41358
-2.37554
-2.31231
-2.28614
-2.34937
-2.31231
-2.25008
-2.2239
-2.28614
-2.25008
-2.18882
-2.16265
-2.2239
-2.18882
-2.12856
-2.10239
-2.16265
-2.12856
-2.06928
-2.04311
-2.10239
-2.06928
-2.01099
-1.98482
-2.04311
-2.01099
-1.95369
-1.92752
-1.98482
-1.95369
-1.89738
-1.87121
-1.92752
-1.89738
-1.84205
-1.81588
-1.87121
-1.84205
-1.78772
-1.76154
-1.81588
-1.78772
-1.73437
-1.70819
-1.76154
-1.73437
-1.682
-1.65583
-1.70819
-1.682
-1.63063
-1.60446
-1.65583
-1.63063
-1.58024
-1.55407
-1.60446
-1.58024
-1.53084
-1.50467
-1.55407
-1.53084
-1.48243
-1.45626
-1.50467
-1.48243
-1.43501
-1.40883
-1.45626
-1.43501
-1.38857
-1.3624
-1.40883
-1.38857
-1.34312
-1.31695
-1.3624
-1.34312
-1.29866
-1.27249
-1.31695
-1.29866
-1.25518
-1.22901
-1.27249
-1.25518
-1.2127
-1.18653
-1.22901
-1.2127
-1.1712
-1.14503
-1.18653
-1.1712
-1.13069
-1.10452
-1.14503
-1.13069
-1.09117
-1.06499
-1.10452
-1.09117
-1.05263
-1.02646
-1.06499
-1.05263
-1.01508
-0.988909
-1.02646
-1.01508
-0.978522
-0.952349
-0.988909
-0.978522
-0.942949
-0.916777
-0.952349
-0.942949
-0.908365
-0.882192
-0.916777
-0.908365
-0.874767
-0.848594
-0.882192
-0.874767
-0.842158
-0.815985
-0.848594
-0.842158
-0.810536
-0.784363
-0.815985
-0.810536
-0.779901
-0.753729
-0.784363
-0.779901
-0.750255
-0.724082
-0.753729
-0.750255
-0.721596
-0.695423
-0.724082
-0.721596
-0.693925
-0.667752
-0.695423
-0.693925
-0.667241
-0.641068
-0.667752
-0.667241
-0.641545
-0.615372
-0.641068
-0.641545
-0.616836
-0.590664
-0.615372
-0.616836
-0.593116
-0.566943
-0.590664
-0.593116
-0.570383
-0.54421
-0.566943
-0.570383
-0.548637
-0.522464
-0.54421
-0.548637
-0.52788
-0.501707
-0.522464
-0.52788
-0.508109
-0.481937
-0.501707
-0.508109
-0.489327
-0.463154
-0.481937
-0.489327
-0.471532
-0.445359
-0.463154
-0.471532
-0.454725
-0.428552
-0.445359
-0.454725
-0.438906
-0.412733
-0.428552
-0.438906
-0.424074
-0.397901
-0.412733
-0.424074
-0.41023
-0.384057
-0.397901
-0.41023
-0.397373
-0.3712
-0.384057
-0.397373
-0.385504
-0.359331
-0.3712
-0.385504
-0.374623
-0.34845
-0.359331
-0.374623
-0.36473
-0.338557
-0.34845
-0.36473
-0.355824
-0.329651
-0.338557
-0.355824
-0.347905
-0.321733
-0.329651
-0.347905
-0.340975
-0.314802
-0.321733
-0.340975
-0.335032
-0.308859
-0.314802
-0.335032
-0.330077
-0.303904
-0.308859
-0.330077
-0.326109
-0.299936
-0.303904
-0.326109
-0.323129
-0.296956
-0.299936
-0.323129
-0.321137
-0.294964
-0.296956
-0.321137
-0.320132
-0.293959
-0.294964
-0.320132
-0.320115
-0.293942
-0.293959
-0.320115
-0.321086
-0.294913
-0.293942
-0.321086
-0.323044
-0.296871
-0.294913
-0.323044
-0.32599
-0.299817
-0.296871
-0.32599
-0.329924
-0.303751
-0.299817
-0.329924
-0.334845
-0.308672
-0.303751
-0.334845
-0.340754
-0.314581
-0.308672
-0.340754
-0.34765
-0.321478
-0.314581
-0.34765
-0.355535
-0.329362
-0.321478
-0.355535
-0.364407
-0.338234
-0.329362
-0.364407
-0.374266
-0.348093
-0.338234
-0.374266
-0.385113
-0.35894
-0.348093
-0.385113
-0.396948
-0.370775
-0.35894
-0.396948
-0.409771
-0.383598
-0.370775
-0.409771
-0.423581
-0.397408
-0.383598
-0.423581
-0.438379
-0.412206
-0.397408
-0.438379
-0.454164
-0.427991
-0.412206
-0.454164
-0.470937
-0.444764
-0.427991
-0.470937
-0.488698
-0.462525
-0.444764
-0.488698
-0.507446
-0.481274
-0.462525
-0.507446
-0.527182
-0.50101
-0.481274
-0.527182
-0.547906
-0.521733
-0.50101
-0.547906
-0.569618
-0.543445
-0.521733
-0.569618
-0.592317
-0.566144
-0.543445
-0.592317
-0.616003
-0.58983
-0.566144
-0.616003
-0.640678
-0.614505
-0.58983
-0.640678
-0.66634
-0.640167
-0.614505
-0.66634
-0.692989
-0.666817
-0.640167
-0.692989
-0.720627
-0.694454
-0.666817
-0.720627
-0.749252
-0.723079
-0.694454
-5.79204
-5.68832
-5.66313
-5.76686
-5.68832
-5.58559
-5.5604
-5.66313
-5.58559
-5.48384
-5.45866
-5.5604
-5.48384
-5.38308
-5.3579
-5.45866
-5.38308
-5.28331
-5.25813
-5.3579
-5.28331
-5.18453
-5.15935
-5.25813
-5.18453
-5.08674
-5.06155
-5.15935
-5.08674
-4.98993
-4.96474
-5.06155
-4.98993
-4.89411
-4.86892
-4.96474
-4.89411
-4.79928
-4.77409
-4.86892
-4.79928
-4.70543
-4.68025
-4.77409
-4.70543
-4.61258
-4.58739
-4.68025
-4.61258
-4.52071
-4.49552
-4.58739
-4.52071
-4.42983
-4.40464
-4.49552
-4.42983
-4.33993
-4.31475
-4.40464
-4.33993
-4.25103
-4.22584
-4.31475
-4.25103
-4.16311
-4.13792
-4.22584
-4.16311
-4.07618
-4.05099
-4.13792
-4.07618
-3.99024
-3.96505
-4.05099
-3.99024
-3.90528
-3.8801
-3.96505
-3.90528
-3.82131
-3.79613
-3.8801
-3.82131
-3.73833
-3.71315
-3.79613
-3.73833
-3.65634
-3.63116
-3.71315
-3.65634
-3.57534
-3.55015
-3.63116
-3.57534
-3.49532
-3.47013
-3.55015
-3.49532
-3.41629
-3.3911
-3.47013
-3.41629
-3.33825
-3.31306
-3.3911
-3.33825
-3.26119
-3.23601
-3.31306
-3.26119
-3.18513
-3.15994
-3.23601
-3.18513
-3.11005
-3.08486
-3.15994
-3.11005
-3.03596
-3.01077
-3.08486
-3.03596
-2.96285
-2.93767
-3.01077
-2.96285
-2.89074
-2.86555
-2.93767
-2.89074
-2.81961
-2.79443
-2.86555
-2.81961
-2.74947
-2.72429
-2.79443
-2.74947
-2.68032
-2.65513
-2.72429
-2.68032
-2.61215
-2.58697
-2.65513
-2.61215
-2.54498
-2.51979
-2.58697
-2.54498
-2.47879
-2.4536
-2.51979
-2.47879
-2.41358
-2.3884
-2.4536
-2.41358
-2.34937
-2.32418
-2.3884
-2.34937
-2.28614
-2.26096
-2.32418
-2.28614
-2.2239
-2.19872
-2.26096
-2.2239
-2.16265
-2.13747
-2.19872
-2.16265
-2.10239
-2.0772
-2.13747
-2.10239
-2.04311
-2.01793
-2.0772
-2.04311
-1.98482
-1.95964
-2.01793
-1.98482
-1.92752
-1.90234
-1.95964
-1.92752
-1.87121
-1.84602
-1.90234
-1.87121
-1.81588
-1.7907
-1.84602
-1.81588
-1.76154
-1.73636
-1.7907
-1.76154
-1.70819
-1.68301
-1.73636
-1.70819
-1.65583
-1.63065
-1.68301
-1.65583
-1.60446
-1.57927
-1.63065
-1.60446
-1.55407
-1.52888
-1.57927
-1.55407
-1.50467
-1.47948
-1.52888
-1.50467
-1.45626
-1.43107
-1.47948
-1.45626
-1.40883
-1.38365
-1.43107
-1.40883
-1.3624
-1.33721
-1.38365
-1.3624
-1.31695
-1.29176
-1.33721
-1.31695
-1.27249
-1.2473
-1.29176
-1.27249
-1.22901
-1.20383
-1.2473
-1.22901
-1.18653
-1.16134
-1.20383
-1.18653
-1.14503
-1.11984
-1.16134
-1.14503
-1.10452
-1.07933
-1.11984
-1.10452
-1.06499
-1.03981
-1.07933
-1.06499
-1.02646
-1.00127
-1.03981
-1.02646
-0.988909
-0.963724
-1.00127
-0.988909
-0.952349
-0.927164
-0.963724
-0.952349
-0.916777
-0.891591
-0.927164
-0.916777
-0.882192
-0.857007
-0.891591
-0.882192
-0.848594
-0.823409
-0.857007
-0.848594
-0.815985
-0.7908
-0.823409
-0.815985
-0.784363
-0.759178
-0.7908
-0.784363
-0.753729
-0.728543
-0.759178
-0.753729
-0.724082
-0.698897
-0.728543
-0.724082
-0.695423
-0.670238
-0.698897
-0.695423
-0.667752
-0.642566
-0.670238
-0.667752
-0.641068
-0.615883
-0.642566
-0.641068
-0.615372
-0.590187
-0.615883
-0.615372
-0.590664
-0.565478
-0.590187
-0.590664
-0.566943
-0.541758
-0.565478
-0.566943
-0.54421
-0.519025
-0.541758
-0.54421
-0.522464
-0.497279
-0.519025
-0.522464
-0.501707
-0.476522
-0.497279
-0.501707
-0.481937
-0.456751
-0.476522
-0.481937
-0.463154
-0.437969
-0.456751
-0.463154
-0.445359
-0.420174
-0.437969
-0.445359
-0.428552
-0.403367
-0.420174
-0.428552
-0.412733
-0.387548
-0.403367
-0.412733
-0.397901
-0.372716
-0.387548
-0.397901
-0.384057
-0.358872
-0.372716
-0.384057
-0.3712
-0.346015
-0.358872
-0.3712
-0.359331
-0.334146
-0.346015
-0.359331
-0.34845
-0.323265
-0.334146
-0.34845
-0.338557
-0.313372
-0.323265
-0.338557
-0.329651
-0.304466
-0.313372
-0.329651
-0.321733
-0.296547
-0.304466
-0.321733
-0.314802
-0.289617
-0.296547
-0.314802
-0.308859
-0.283674
-0.289617
-0.308859
-0.303904
-0.278719
-0.283674
-0.303904
-0.299936
-0.274751
-0.278719
-0.299936
-0.296956
-0.271771
-0.274751
-0.296956
-0.294964
-0.269779
-0.271771
-0.294964
-0.293959
-0.268774
-0.269779
-0.293959
-0.293942
-0.268757
-0.268774
-0.293942
-0.294913
-0.269728
-0.268757
-0.294913
-0.296871
-0.271686
-0.269728
-0.296871
-0.299817
-0.274632
-0.271686
-0.299817
-0.303751
-0.278566
-0.274632
-0.303751
-0.308672
-0.283487
-0.278566
-0.308672
-0.314581
-0.289396
-0.283487
-0.314581
-0.321478
-0.296292
-0.289396
-0.321478
-0.329362
-0.304177
-0.296292
-0.329362
-0.338234
-0.313048
-0.304177
-0.338234
-0.348093
-0.322908
-0.313048
-0.348093
-0.35894
-0.333755
-0.322908
-0.35894
-0.370775
-0.34559
-0.333755
-0.370775
-0.383598
-0.358413
-0.34559
-0.383598
-0.397408
-0.372223
-0.358413
-0.397408
-0.412206
-0.387021
-0.372223
-0.412206
-0.427991
-0.402806
-0.387021
-0.427991
-0.444764
-0.419579
-0.402806
-0.444764
-0.462525
-0.43734
-0.419579
-0.462525
-0.481274
-0.456088
-0.43734
-0.481274
-0.50101
-0.475824
-0.456088
-0.50101
-0.521733
-0.496548
-0.475824
-0.521733
-0.543445
-0.51826
-0.496548
-0.543445
-0.566144
-0.540959
-0.51826
-0.566144
-0.58983
-0.564645
-0.540959
-0.58983
-0.614505
-0.58932
-0.564645
-0.614505
-0.640167
-0.614982
-0.58932
-0.640167
-0.666817
-0.641631
-0.614982
-0.666817
-0.694454
-0.669269
-0.641631
-0.694454
-0.723079
-0.697894
-0.669269
-5.76686
-5.66313
-5.63894
-5.74266
-5.66313
-5.5604
-5.5362
-5.63894
-5.5604
-5.45866
-5.43446
-5.5362
-5.45866
-5.3579
-5.3337
-5.43446
-5.3579
-5.25813
-5.23393
-5.3337
-5.25813
-5.15935
-5.13515
-5.23393
-5.15935
-5.06155
-5.03735
-5.13515
-5.06155
-4.96474
-4.94055
-5.03735
-4.96474
-4.86892
-4.84473
-4.94055
-4.86892
-4.77409
-4.7499
-4.84473
-4.77409
-4.68025
-4.65605
-4.7499
-4.68025
-4.58739
-4.56319
-4.65605
-4.58739
-4.49552
-4.47133
-4.56319
-4.49552
-4.40464
-4.38044
-4.47133
-4.40464
-4.31475
-4.29055
-4.38044
-4.31475
-4.22584
-4.20165
-4.29055
-4.22584
-4.13792
-4.11373
-4.20165
-4.13792
-4.05099
-4.0268
-4.11373
-4.05099
-3.96505
-3.94085
-4.0268
-3.96505
-3.8801
-3.8559
-3.94085
-3.8801
-3.79613
-3.77193
-3.8559
-3.79613
-3.71315
-3.68895
-3.77193
-3.71315
-3.63116
-3.60696
-3.68895
-3.63116
-3.55015
-3.52595
-3.60696
-3.55015
-3.47013
-3.44594
-3.52595
-3.47013
-3.3911
-3.36691
-3.44594
-3.3911
-3.31306
-3.28887
-3.36691
-3.31306
-3.23601
-3.21181
-3.28887
-3.23601
-3.15994
-3.13575
-3.21181
-3.15994
-3.08486
-3.06067
-3.13575
-3.08486
-3.01077
-2.98658
-3.06067
-3.01077
-2.93767
-2.91347
-2.98658
-2.93767
-2.86555
-2.84136
-2.91347
-2.86555
-2.79443
-2.77023
-2.84136
-2.79443
-2.72429
-2.70009
-2.77023
-2.72429
-2.65513
-2.63093
-2.70009
-2.65513
-2.58697
-2.56277
-2.63093
-2.58697
-2.51979
-2.49559
-2.56277
-2.51979
-2.4536
-2.4294
-2.49559
-2.4536
-2.3884
-2.3642
-2.4294
-2.3884
-2.32418
-2.29999
-2.3642
-2.32418
-2.26096
-2.23676
-2.29999
-2.26096
-2.19872
-2.17452
-2.23676
-2.19872
-2.13747
-2.11327
-2.17452
-2.13747
-2.0772
-2.053
-2.11327
-2.0772
-2.01793
-1.99373
-2.053
-2.01793
-1.95964
-1.93544
-1.99373
-1.95964
-1.90234
-1.87814
-1.93544
-1.90234
-1.84602
-1.82183
-1.87814
-1.84602
-1.7907
-1.7665
-1.82183
-1.7907
-1.73636
-1.71216
-1.7665
-1.73636
-1.68301
-1.65881
-1.71216
-1.68301
-1.63065
-1.60645
-1.65881
-1.63065
-1.57927
-1.55507
-1.60645
-1.57927
-1.52888
-1.50469
-1.55507
-1.52888
-1.47948
-1.45529
-1.50469
-1.47948
-1.43107
-1.40687
-1.45529
-1.43107
-1.38365
-1.35945
-1.40687
-1.38365
-1.33721
-1.31301
-1.35945
-1.33721
-1.29176
-1.26756
-1.31301
-1.29176
-1.2473
-1.2231
-1.26756
-1.2473
-1.20383
-1.17963
-1.2231
-1.20383
-1.16134
-1.13714
-1.17963
-1.16134
-1.11984
-1.09564
-1.13714
-1.11984
-1.07933
-1.05513
-1.09564
-1.07933
-1.03981
-1.01561
-1.05513
-1.03981
-1.00127
-0.977075
-1.01561
-1.00127
-0.963724
-0.939527
-0.977075
-0.963724
-0.927164
-0.902966
-0.939527
-0.927164
-0.891591
-0.867394
-0.902966
-0.891591
-0.857007
-0.832809
-0.867394
-0.857007
-0.823409
-0.799212
-0.832809
-0.823409
-0.7908
-0.766602
-0.799212
-0.7908
-0.759178
-0.73498
-0.766602
-0.759178
-0.728543
-0.704346
-0.73498
-0.728543
-0.698897
-0.674699
-0.704346
-0.698897
-0.670238
-0.64604
-0.674699
-0.670238
-0.642566
-0.618369
-0.64604
-0.642566
-0.615883
-0.591685
-0.618369
-0.615883
-0.590187
-0.565989
-0.591685
-0.590187
-0.565478
-0.541281
-0.565989
-0.565478
-0.541758
-0.51756
-0.541281
-0.541758
-0.519025
-0.494827
-0.51756
-0.519025
-0.497279
-0.473082
-0.494827
-0.497279
-0.476522
-0.452324
-0.473082
-0.476522
-0.456751
-0.432554
-0.452324
-0.456751
-0.437969
-0.413771
-0.432554
-0.437969
-0.420174
-0.395977
-0.413771
-0.420174
-0.403367
-0.37917
-0.395977
-0.403367
-0.387548
-0.36335
-0.37917
-0.387548
-0.372716
-0.348518
-0.36335
-0.372716
-0.358872
-0.334674
-0.348518
-0.358872
-0.346015
-0.321818
-0.334674
-0.346015
-0.334146
-0.309949
-0.321818
-0.334146
-0.323265
-0.299068
-0.309949
-0.323265
-0.313372
-0.289174
-0.299068
-0.313372
-0.304466
-0.280268
-0.289174
-0.304466
-0.296547
-0.27235
-0.280268
-0.296547
-0.289617
-0.265419
-0.27235
-0.289617
-0.283674
-0.259476
-0.265419
-0.283674
-0.278719
-0.254521
-0.259476
-0.278719
-0.274751
-0.250553
-0.254521
-0.274751
-0.271771
-0.247574
-0.250553
-0.271771
-0.269779
-0.245581
-0.247574
-0.269779
-0.268774
-0.244577
-0.245581
-0.268774
-0.268757
-0.24456
-0.244577
-0.268757
-0.269728
-0.24553
-0.24456
-0.269728
-0.271686
-0.247489
-0.24553
-0.271686
-0.274632
-0.250434
-0.247489
-0.274632
-0.278566
-0.254368
-0.250434
-0.278566
-0.283487
-0.259289
-0.254368
-0.283487
-0.289396
-0.265198
-0.259289
-0.289396
-0.296292
-0.272095
-0.265198
-0.296292
-0.304177
-0.279979
-0.272095
-0.304177
-0.313048
-0.288851
-0.279979
-0.313048
-0.322908
-0.298711
-0.288851
-0.322908
-0.333755
-0.309558
-0.298711
-0.333755
-0.34559
-0.321393
-0.309558
-0.34559
-0.358413
-0.334215
-0.321393
-0.358413
-0.372223
-0.348025
-0.334215
-0.372223
-0.387021
-0.362823
-0.348025
-0.387021
-0.402806
-0.378608
-0.362823
-0.402806
-0.419579
-0.395382
-0.378608
-0.419579
-0.43734
-0.413142
-0.395382
-0.43734
-0.456088
-0.431891
-0.413142
-0.456088
-0.475824
-0.451627
-0.431891
-0.475824
-0.496548
-0.472351
-0.451627
-0.496548
-0.51826
-0.494062
-0.472351
-0.51826
-0.540959
-0.516761
-0.494062
-0.540959
-0.564645
-0.540448
-0.516761
-0.564645
-0.58932
-0.565122
-0.540448
-0.58932
-0.614982
-0.590784
-0.565122
-0.614982
-0.641631
-0.617434
-0.590784
-0.641631
-0.669269
-0.645071
-0.617434
-0.669269
-0.697894
-0.673696
-0.645071
-5.74266
-5.63894
-5.61573
-5.71945
-5.63894
-5.5362
-5.51299
-5.61573
-5.5362
-5.43446
-5.41125
-5.51299
-5.43446
-5.3337
-5.31049
-5.41125
-5.3337
-5.23393
-5.21072
-5.31049
-5.23393
-5.13515
-5.11194
-5.21072
-5.13515
-5.03735
-5.01414
-5.11194
-5.03735
-4.94055
-4.91734
-5.01414
-4.94055
-4.84473
-4.82152
-4.91734
-4.84473
-4.7499
-4.72669
-4.82152
-4.7499
-4.65605
-4.63284
-4.72669
-4.65605
-4.56319
-4.53998
-4.63284
-4.56319
-4.47133
-4.44812
-4.53998
-4.47133
-4.38044
-4.35723
-4.44812
-4.38044
-4.29055
-4.26734
-4.35723
-4.29055
-4.20165
-4.17844
-4.26734
-4.20165
-4.11373
-4.09052
-4.17844
-4.11373
-4.0268
-4.00359
-4.09052
-4.0268
-3.94085
-3.91764
-4.00359
-3.94085
-3.8559
-3.83269
-3.91764
-3.8559
-3.77193
-3.74872
-3.83269
-3.77193
-3.68895
-3.66574
-3.74872
-3.68895
-3.60696
-3.58375
-3.66574
-3.60696
-3.52595
-3.50274
-3.58375
-3.52595
-3.44594
-3.42273
-3.50274
-3.44594
-3.36691
-3.3437
-3.42273
-3.36691
-3.28887
-3.26566
-3.3437
-3.28887
-3.21181
-3.1886
-3.26566
-3.21181
-3.13575
-3.11254
-3.1886
-3.13575
-3.06067
-3.03746
-3.11254
-3.06067
-2.98658
-2.96337
-3.03746
-2.98658
-2.91347
-2.89026
-2.96337
-2.91347
-2.84136
-2.81815
-2.89026
-2.84136
-2.77023
-2.74702
-2.81815
-2.77023
-2.70009
-2.67688
-2.74702
-2.70009
-2.63093
-2.60773
-2.67688
-2.63093
-2.56277
-2.53956
-2.60773
-2.56277
-2.49559
-2.47238
-2.53956
-2.49559
-2.4294
-2.40619
-2.47238
-2.4294
-2.3642
-2.34099
-2.40619
-2.3642
-2.29999
-2.27678
-2.34099
-2.29999
-2.23676
-2.21355
-2.27678
-2.23676
-2.17452
-2.15131
-2.21355
-2.17452
-2.11327
-2.09006
-2.15131
-2.11327
-2.053
-2.02979
-2.09006
-2.053
-1.99373
-1.97052
-2.02979
-1.99373
-1.93544
-1.91223
-1.97052
-1.93544
-1.87814
-1.85493
-1.91223
-1.87814
-1.82183
-1.79862
-1.85493
-1.82183
-1.7665
-1.74329
-1.79862
-1.7665
-1.71216
-1.68895
-1.74329
-1.71216
-1.65881
-1.6356
-1.68895
-1.65881
-1.60645
-1.58324
-1.6356
-1.60645
-1.55507
-1.53186
-1.58324
-1.55507
-1.50469
-1.48148
-1.53186
-1.50469
-1.45529
-1.43208
-1.48148
-1.45529
-1.40687
-1.38366
-1.43208
-1.40687
-1.35945
-1.33624
-1.38366
-1.35945
-1.31301
-1.2898
-1.33624
-1.31301
-1.26756
-1.24435
-1.2898
-1.26756
-1.2231
-1.19989
-1.24435
-1.2231
-1.17963
-1.15642
-1.19989
-1.17963
-1.13714
-1.11393
-1.15642
-1.13714
-1.09564
-1.07243
-1.11393
-1.09564
-1.05513
-1.03192
-1.07243
-1.05513
-1.01561
-0.9924
-1.03192
-1.01561
-0.977075
-0.953865
-0.9924
-0.977075
-0.939527
-0.916317
-0.953865
-0.939527
-0.902966
-0.879757
-0.916317
-0.902966
-0.867394
-0.844184
-0.879757
-0.867394
-0.832809
-0.809599
-0.844184
-0.832809
-0.799212
-0.776002
-0.809599
-0.799212
-0.766602
-0.743392
-0.776002
-0.766602
-0.73498
-0.71177
-0.743392
-0.73498
-0.704346
-0.681136
-0.71177
-0.704346
-0.674699
-0.651489
-0.681136
-0.674699
-0.64604
-0.62283
-0.651489
-0.64604
-0.618369
-0.595159
-0.62283
-0.618369
-0.591685
-0.568475
-0.595159
-0.591685
-0.565989
-0.542779
-0.568475
-0.565989
-0.541281
-0.518071
-0.542779
-0.541281
-0.51756
-0.49435
-0.518071
-0.51756
-0.494827
-0.471617
-0.49435
-0.494827
-0.473082
-0.449872
-0.471617
-0.473082
-0.452324
-0.429114
-0.449872
-0.452324
-0.432554
-0.409344
-0.429114
-0.432554
-0.413771
-0.390562
-0.409344
-0.413771
-0.395977
-0.372767
-0.390562
-0.395977
-0.37917
-0.35596
-0.372767
-0.37917
-0.36335
-0.34014
-0.35596
-0.36335
-0.348518
-0.325308
-0.34014
-0.348518
-0.334674
-0.311464
-0.325308
-0.334674
-0.321818
-0.298608
-0.311464
-0.321818
-0.309949
-0.286739
-0.298608
-0.309949
-0.299068
-0.275858
-0.286739
-0.299068
-0.289174
-0.265964
-0.275858
-0.289174
-0.280268
-0.257058
-0.265964
-0.280268
-0.27235
-0.24914
-0.257058
-0.27235
-0.265419
-0.242209
-0.24914
-0.265419
-0.259476
-0.236267
-0.242209
-0.259476
-0.254521
-0.231311
-0.236267
-0.254521
-0.250553
-0.227344
-0.231311
-0.250553
-0.247574
-0.224364
-0.227344
-0.247574
-0.245581
-0.222371
-0.224364
-0.245581
-0.244577
-0.221367
-0.222371
-0.244577
-0.24456
-0.22135
-0.221367
-0.24456
-0.24553
-0.22232
-0.22135
-0.24553
-0.247489
-0.224279
-0.22232
-0.247489
-0.250434
-0.227225
-0.224279
-0.250434
-0.254368
-0.231158
-0.227225
-0.254368
-0.259289
-0.236079
-0.231158
-0.259289
-0.265198
-0.241988
-0.236079
-0.265198
-0.272095
-0.248885
-0.241988
-0.272095
-0.279979
-0.256769
-0.248885
-0.279979
-0.288851
-0.265641
-0.256769
-0.288851
-0.298711
-0.275501
-0.265641
-0.298711
-0.309558
-0.286348
-0.275501
-0.309558
-0.321393
-0.298183
-0.286348
-0.321393
-0.334215
-0.311005
-0.298183
-0.334215
-0.348025
-0.324815
-0.311005
-0.348025
-0.362823
-0.339613
-0.324815
-0.362823
-0.378608
-0.355399
-0.339613
-0.378608
-0.395382
-0.372172
-0.355399
-0.395382
-0.413142
-0.389933
-0.372172
-0.413142
-0.431891
-0.408681
-0.389933
-0.431891
-0.451627
-0.428417