# vtk DataFile Version 1.0
unstructured Grid
ASCII
DATASET UNSTRUCTURED_GRID
POINTS 23448 float 
0 0	 0.0
0.0222222 0	 0.0
0.0222222 0.0222222	 0.0
0 0.0222222	 0.0
0.0222222 0	 0.0
0.0444444 0	 0.0
0.0444444 0.0222222	 0.0
0.0222222 0.0222222	 0.0
0.0444444 0	 0.0
0.0666667 0	 0.0
0.0666667 0.0222222	 0.0
0.0444444 0.0222222	 0.0
0.0666667 0	 0.0
0.0888889 0	 0.0
0.0888889 0.0222222	 0.0
0.0666667 0.0222222	 0.0
0.0888889 0	 0.0
0.111111 0	 0.0
0.111111 0.0222222	 0.0
0.0888889 0.0222222	 0.0
0.111111 0	 0.0
0.133333 0	 0.0
0.133333 0.0222222	 0.0
0.111111 0.0222222	 0.0
0.133333 0	 0.0
0.155556 0	 0.0
0.155556 0.0222222	 0.0
0.133333 0.0222222	 0.0
0.155556 0	 0.0
0.177778 0	 0.0
0.177778 0.0222222	 0.0
0.155556 0.0222222	 0.0
0.177778 0	 0.0
0.2 0	 0.0
0.2 0.0222222	 0.0
0.177778 0.0222222	 0.0
0.2 0	 0.0
0.222222 0	 0.0
0.222222 0.0222222	 0.0
0.2 0.0222222	 0.0
0.222222 0	 0.0
0.244444 0	 0.0
0.244444 0.0222222	 0.0
0.222222 0.0222222	 0.0
0.244444 0	 0.0
0.266667 0	 0.0
0.266667 0.0222222	 0.0
0.244444 0.0222222	 0.0
0.266667 0	 0.0
0.288889 0	 0.0
0.288889 0.0222222	 0.0
0.266667 0.0222222	 0.0
0.288889 0	 0.0
0.311111 0	 0.0
0.311111 0.0222222	 0.0
0.288889 0.0222222	 0.0
0.311111 0	 0.0
0.333333 0	 0.0
0.333333 0.0222222	 0.0
0.311111 0.0222222	 0.0
0.333333 0	 0.0
0.355556 0	 0.0
0.355556 0.0222222	 0.0
0.333333 0.0222222	 0.0
0.355556 0	 0.0
0.377778 0	 0.0
0.377778 0.0222222	 0.0
0.355556 0.0222222	 0.0
0.377778 0	 0.0
0.4 0	 0.0
0.4 0.0222222	 0.0
0.377778 0.0222222	 0.0
0.4 0	 0.0
0.422222 0	 0.0
0.422222 0.0222222	 0.0
0.4 0.0222222	 0.0
0.422222 0	 0.0
0.444444 0	 0.0
0.444444 0.0222222	 0.0
0.422222 0.0222222	 0.0
0.444444 0	 0.0
0.466667 0	 0.0
0.466667 0.0222222	 0.0
0.444444 0.0222222	 0.0
0.466667 0	 0.0
0.488889 0	 0.0
0.488889 0.0222222	 0.0
0.466667 0.0222222	 0.0
0.488889 0	 0.0
0.511111 0	 0.0
0.511111 0.0222222	 0.0
0.488889 0.0222222	 0.0
0.511111 0	 0.0
0.533333 0	 0.0
0.533333 0.0222222	 0.0
0.511111 0.0222222	 0.0
0.533333 0	 0.0
0.555556 0	 0.0
0.555556 0.0222222	 0.0
0.533333 0.0222222	 0.0
0.555556 0	 0.0
0.577778 0	 0.0
0.577778 0.0222222	 0.0
0.555556 0.0222222	 0.0
0.577778 0	 0.0
0.6 0	 0.0
0.6 0.0222222	 0.0
0.577778 0.0222222	 0.0
0.6 0	 0.0
0.622222 0	 0.0
0.622222 0.0222222	 0.0
0.6 0.0222222	 0.0
0.622222 0	 0.0
0.644444 0	 0.0
0.644444 0.0222222	 0.0
0.622222 0.0222222	 0.0
0.644444 0	 0.0
0.666667 0	 0.0
0.666667 0.0222222	 0.0
0.644444 0.0222222	 0.0
0.666667 0	 0.0
0.688889 0	 0.0
0.688889 0.0222222	 0.0
0.666667 0.0222222	 0.0
0.688889 0	 0.0
0.711111 0	 0.0
0.711111 0.0222222	 0.0
0.688889 0.0222222	 0.0
0.711111 0	 0.0
0.733333 0	 0.0
0.733333 0.0222222	 0.0
0.711111 0.0222222	 0.0
0.733333 0	 0.0
0.755556 0	 0.0
0.755556 0.0222222	 0.0
0.733333 0.0222222	 0.0
0.755556 0	 0.0
0.777778 0	 0.0
0.777778 0.0222222	 0.0
0.755556 0.0222222	 0.0
0.777778 0	 0.0
0.8 0	 0.0
0.8 0.0222222	 0.0
0.777778 0.0222222	 0.0
0.8 0	 0.0
0.822222 0	 0.0
0.822222 0.0222222	 0.0
0.8 0.0222222	 0.0
0.822222 0	 0.0
0.844444 0	 0.0
0.844444 0.0222222	 0.0
0.822222 0.0222222	 0.0
0.844444 0	 0.0
0.866667 0	 0.0
0.866667 0.0222222	 0.0
0.844444 0.0222222	 0.0
0.866667 0	 0.0
0.888889 0	 0.0
0.888889 0.0222222	 0.0
0.866667 0.0222222	 0.0
0.888889 0	 0.0
0.911111 0	 0.0
0.911111 0.0222222	 0.0
0.888889 0.0222222	 0.0
0.911111 0	 0.0
0.933333 0	 0.0
0.933333 0.0222222	 0.0
0.911111 0.0222222	 0.0
0.933333 0	 0.0
0.955556 0	 0.0
0.955556 0.0222222	 0.0
0.933333 0.0222222	 0.0
0.955556 0	 0.0
0.977778 0	 0.0
0.977778 0.0222222	 0.0
0.955556 0.0222222	 0.0
0.977778 0	 0.0
1 0	 0.0
1 0.0222222	 0.0
0.977778 0.0222222	 0.0
1 0	 0.0
1.02222 0	 0.0
1.02222 0.0222222	 0.0
1 0.0222222	 0.0
1.02222 0	 0.0
1.04444 0	 0.0
1.04444 0.0222222	 0.0
1.02222 0.0222222	 0.0
1.04444 0	 0.0
1.06667 0	 0.0
1.06667 0.0222222	 0.0
1.04444 0.0222222	 0.0
1.06667 0	 0.0
1.08889 0	 0.0
1.08889 0.0222222	 0.0
1.06667 0.0222222	 0.0
1.08889 0	 0.0
1.11111 0	 0.0
1.11111 0.0222222	 0.0
1.08889 0.0222222	 0.0
1.11111 0	 0.0
1.13333 0	 0.0
1.13333 0.0222222	 0.0
1.11111 0.0222222	 0.0
1.13333 0	 0.0
1.15556 0	 0.0
1.15556 0.0222222	 0.0
1.13333 0.0222222	 0.0
1.15556 0	 0.0
1.17778 0	 0.0
1.17778 0.0222222	 0.0
1.15556 0.0222222	 0.0
1.17778 0	 0.0
1.2 0	 0.0
1.2 0.0222222	 0.0
1.17778 0.0222222	 0.0
1.2 0	 0.0
1.22222 0	 0.0
1.22222 0.0222222	 0.0
1.2 0.0222222	 0.0
1.22222 0	 0.0
1.24444 0	 0.0
1.24444 0.0222222	 0.0
1.22222 0.0222222	 0.0
1.24444 0	 0.0
1.26667 0	 0.0
1.26667 0.0222222	 0.0
1.24444 0.0222222	 0.0
1.26667 0	 0.0
1.28889 0	 0.0
1.28889 0.0222222	 0.0
1.26667 0.0222222	 0.0
1.28889 0	 0.0
1.31111 0	 0.0
1.31111 0.0222222	 0.0
1.28889 0.0222222	 0.0
1.31111 0	 0.0
1.33333 0	 0.0
1.33333 0.0222222	 0.0
1.31111 0.0222222	 0.0
1.33333 0	 0.0
1.35556 0	 0.0
1.35556 0.0222222	 0.0
1.33333 0.0222222	 0.0
1.35556 0	 0.0
1.37778 0	 0.0
1.37778 0.0222222	 0.0
1.35556 0.0222222	 0.0
1.37778 0	 0.0
1.4 0	 0.0
1.4 0.0222222	 0.0
1.37778 0.0222222	 0.0
1.4 0	 0.0
1.42222 0	 0.0
1.42222 0.0222222	 0.0
1.4 0.0222222	 0.0
1.42222 0	 0.0
1.44444 0	 0.0
1.44444 0.0222222	 0.0
1.42222 0.0222222	 0.0
1.44444 0	 0.0
1.46667 0	 0.0
1.46667 0.0222222	 0.0
1.44444 0.0222222	 0.0
1.46667 0	 0.0
1.48889 0	 0.0
1.48889 0.0222222	 0.0
1.46667 0.0222222	 0.0
1.48889 0	 0.0
1.51111 0	 0.0
1.51111 0.0222222	 0.0
1.48889 0.0222222	 0.0
1.51111 0	 0.0
1.53333 0	 0.0
1.53333 0.0222222	 0.0
1.51111 0.0222222	 0.0
1.53333 0	 0.0
1.55556 0	 0.0
1.55556 0.0222222	 0.0
1.53333 0.0222222	 0.0
1.55556 0	 0.0
1.57778 0	 0.0
1.57778 0.0222222	 0.0
1.55556 0.0222222	 0.0
1.57778 0	 0.0
1.6 0	 0.0
1.6 0.0222222	 0.0
1.57778 0.0222222	 0.0
1.6 0	 0.0
1.62222 0	 0.0
1.62222 0.0222222	 0.0
1.6 0.0222222	 0.0
1.62222 0	 0.0
1.64444 0	 0.0
1.64444 0.0222222	 0.0
1.62222 0.0222222	 0.0
1.64444 0	 0.0
1.66667 0	 0.0
1.66667 0.0222222	 0.0
1.64444 0.0222222	 0.0
1.66667 0	 0.0
1.68889 0	 0.0
1.68889 0.0222222	 0.0
1.66667 0.0222222	 0.0
1.68889 0	 0.0
1.71111 0	 0.0
1.71111 0.0222222	 0.0
1.68889 0.0222222	 0.0
1.71111 0	 0.0
1.73333 0	 0.0
1.73333 0.0222222	 0.0
1.71111 0.0222222	 0.0
1.73333 0	 0.0
1.75556 0	 0.0
1.75556 0.0222222	 0.0
1.73333 0.0222222	 0.0
1.75556 0	 0.0
1.77778 0	 0.0
1.77778 0.0222222	 0.0
1.75556 0.0222222	 0.0
1.77778 0	 0.0
1.8 0	 0.0
1.8 0.0222222	 0.0
1.77778 0.0222222	 0.0
1.8 0	 0.0
1.82222 0	 0.0
1.82222 0.0222222	 0.0
1.8 0.0222222	 0.0
1.82222 0	 0.0
1.84444 0	 0.0
1.84444 0.0222222	 0.0
1.82222 0.0222222	 0.0
1.84444 0	 0.0
1.86667 0	 0.0
1.86667 0.0222222	 0.0
1.84444 0.0222222	 0.0
1.86667 0	 0.0
1.88889 0	 0.0
1.88889 0.0222222	 0.0
1.86667 0.0222222	 0.0
1.88889 0	 0.0
1.91111 0	 0.0
1.91111 0.0222222	 0.0
1.88889 0.0222222	 0.0
1.91111 0	 0.0
1.93333 0	 0.0
1.93333 0.0222222	 0.0
1.91111 0.0222222	 0.0
1.93333 0	 0.0
1.95556 0	 0.0
1.95556 0.0222222	 0.0
1.93333 0.0222222	 0.0
1.95556 0	 0.0
1.97778 0	 0.0
1.97778 0.0222222	 0.0
1.95556 0.0222222	 0.0
1.97778 0	 0.0
2 0	 0.0
2 0.0222222	 0.0
1.97778 0.0222222	 0.0
2 0	 0.0
2.02222 0	 0.0
2.02222 0.0222222	 0.0
2 0.0222222	 0.0
2.02222 0	 0.0
2.04444 0	 0.0
2.04444 0.0222222	 0.0
2.02222 0.0222222	 0.0
2.04444 0	 0.0
2.06667 0	 0.0
2.06667 0.0222222	 0.0
2.04444 0.0222222	 0.0
2.06667 0	 0.0
2.08889 0	 0.0
2.08889 0.0222222	 0.0
2.06667 0.0222222	 0.0
2.08889 0	 0.0
2.11111 0	 0.0
2.11111 0.0222222	 0.0
2.08889 0.0222222	 0.0
2.11111 0	 0.0
2.13333 0	 0.0
2.13333 0.0222222	 0.0
2.11111 0.0222222	 0.0
2.13333 0	 0.0
2.15556 0	 0.0
2.15556 0.0222222	 0.0
2.13333 0.0222222	 0.0
2.15556 0	 0.0
2.17778 0	 0.0
2.17778 0.0222222	 0.0
2.15556 0.0222222	 0.0
2.17778 0	 0.0
2.2 0	 0.0
2.2 0.0222222	 0.0
2.17778 0.0222222	 0.0
2.2 0	 0.0
2.22222 0	 0.0
2.22222 0.0222222	 0.0
2.2 0.0222222	 0.0
2.22222 0	 0.0
2.24444 0	 0.0
2.24444 0.0222222	 0.0
2.22222 0.0222222	 0.0
2.24444 0	 0.0
2.26667 0	 0.0
2.26667 0.0222222	 0.0
2.24444 0.0222222	 0.0
2.26667 0	 0.0
2.28889 0	 0.0
2.28889 0.0222222	 0.0
2.26667 0.0222222	 0.0
2.28889 0	 0.0
2.31111 0	 0.0
2.31111 0.0222222	 0.0
2.28889 0.0222222	 0.0
2.31111 0	 0.0
2.33333 0	 0.0
2.33333 0.0222222	 0.0
2.31111 0.0222222	 0.0
2.33333 0	 0.0
2.35556 0	 0.0
2.35556 0.0222222	 0.0
2.33333 0.0222222	 0.0
2.35556 0	 0.0
2.37778 0	 0.0
2.37778 0.0222222	 0.0
2.35556 0.0222222	 0.0
2.37778 0	 0.0
2.4 0	 0.0
2.4 0.0222222	 0.0
2.37778 0.0222222	 0.0
2.4 0	 0.0
2.42222 0	 0.0
2.42222 0.0222222	 0.0
2.4 0.0222222	 0.0
2.42222 0	 0.0
2.44444 0	 0.0
2.44444 0.0222222	 0.0
2.42222 0.0222222	 0.0
2.44444 0	 0.0
2.46667 0	 0.0
2.46667 0.0222222	 0.0
2.44444 0.0222222	 0.0
2.46667 0	 0.0
2.48889 0	 0.0
2.48889 0.0222222	 0.0
2.46667 0.0222222	 0.0
2.48889 0	 0.0
2.51111 0	 0.0
2.51111 0.0222222	 0.0
2.48889 0.0222222	 0.0
2.51111 0	 0.0
2.53333 0	 0.0
2.53333 0.0222222	 0.0
2.51111 0.0222222	 0.0
2.53333 0	 0.0
2.55556 0	 0.0
2.55556 0.0222222	 0.0
2.53333 0.0222222	 0.0
2.55556 0	 0.0
2.57778 0	 0.0
2.57778 0.0222222	 0.0
2.55556 0.0222222	 0.0
2.57778 0	 0.0
2.6 0	 0.0
2.6 0.0222222	 0.0
2.57778 0.0222222	 0.0
2.6 0	 0.0
2.62222 0	 0.0
2.62222 0.0222222	 0.0
2.6 0.0222222	 0.0
2.62222 0	 0.0
2.64444 0	 0.0
2.64444 0.0222222	 0.0
2.62222 0.0222222	 0.0
2.64444 0	 0.0
2.66667 0	 0.0
2.66667 0.0222222	 0.0
2.64444 0.0222222	 0.0
2.66667 0	 0.0
2.68889 0	 0.0
2.68889 0.0222222	 0.0
2.66667 0.0222222	 0.0
2.68889 0	 0.0
2.71111 0	 0.0
2.71111 0.0222222	 0.0
2.68889 0.0222222	 0.0
2.71111 0	 0.0
2.73333 0	 0.0
2.73333 0.0222222	 0.0
2.71111 0.0222222	 0.0
2.73333 0	 0.0
2.75556 0	 0.0
2.75556 0.0222222	 0.0
2.73333 0.0222222	 0.0
2.75556 0	 0.0
2.77778 0	 0.0
2.77778 0.0222222	 0.0
2.75556 0.0222222	 0.0
2.77778 0	 0.0
2.8 0	 0.0
2.8 0.0222222	 0.0
2.77778 0.0222222	 0.0
2.8 0	 0.0
2.82222 0	 0.0
2.82222 0.0222222	 0.0
2.8 0.0222222	 0.0
2.82222 0	 0.0
2.84444 0	 0.0
2.84444 0.0222222	 0.0
2.82222 0.0222222	 0.0
2.84444 0	 0.0
2.86667 0	 0.0
2.86667 0.0222222	 0.0
2.84444 0.0222222	 0.0
2.86667 0	 0.0
2.88889 0	 0.0
2.88889 0.0222222	 0.0
2.86667 0.0222222	 0.0
2.88889 0	 0.0
2.91111 0	 0.0
2.91111 0.0222222	 0.0
2.88889 0.0222222	 0.0
2.91111 0	 0.0
[...]
POINT_DATA 23448
SCALARS levelset_first float
LOOKUP_TABLE default
-5.14124
-5.04415
-5.01797
-5.11507
-5.04415
-4.94804
-4.92187
-5.01797
-4.94804
-4.85292
-4.82675
-4.92187
-4.85292
-4.75879
-4.73262
-4.82675
-4.75879
-4.66565
-4.63947
-4.73262
-4.66565
-4.57349
-4.54732
-4.63947
-4.57349
-4.48232
-4.45615
-4.54732
-4.48232
-4.39214
-4.36597
-4.45615
-4.39214
-4.30295
-4.27677
-4.36597
-4.30295
-4.21474
-4.18857
-4.27677
-4.21474
-4.12752
-4.10135
-4.18857
-4.12752
-4.04129
-4.01512
-4.10135
-4.04129
-3.95605
-3.92988
-4.01512
-3.95605
-3.8718
-3.84562
-3.92988
-3.8718
-3.78853
-3.76236
-3.84562
-3.78853
-3.70625
-3.68008
-3.76236
-3.70625
-3.62496
-3.59879
-3.68008
-3.62496
-3.54465
-3.51848
-3.59879
-3.54465
-3.46534
-3.43917
-3.51848
-3.46534
-3.38701
-3.36084
-3.43917
-3.38701
-3.30967
-3.2835
-3.36084
-3.30967
-3.23331
-3.20714
-3.2835
-3.23331
-3.15795
-3.13178
-3.20714
-3.15795
-3.08357
-3.0574
-3.13178
-3.08357
-3.01018
-2.98401
-3.0574
-3.01018
-2.93778
-2.9116
-2.98401
-2.93778
-2.86636
-2.84019
-2.9116
-2.86636
-2.79593
-2.76976
-2.84019
-2.79593
-2.72649
-2.70032
-2.76976
-2.72649
-2.65804
-2.63187
-2.70032
-2.65804
-2.59058
-2.5644
-2.63187
-2.59058
-2.5241
-2.49793
-2.5644
-2.5241
-2.45861
-2.43244
-2.49793
-2.45861
-2.39411
-2.36794
-2.43244
-2.39411
-2.3306
-2.30442
-2.36794
-2.3306
-2.26807
-2.2419
-2.30442
-2.26807
-2.20653
-2.18036
-2.2419
-2.20653
-2.14598
-2.11981
-2.18036
-2.14598
-2.08642
-2.06024
-2.11981
-2.08642
-2.02784
-2.00167
-2.06024
-2.02784
-1.97025
-1.94408
-2.00167
-1.97025
-1.91365
-1.88748
-1.94408
-1.91365
-1.85804
-1.83187
-1.88748
-1.85804
-1.80341
-1.77724
-1.83187
-1.80341
-1.74978
-1.7236
-1.77724
-1.74978
-1.69713
-1.67095
-1.7236
-1.69713
-1.64546
-1.61929
-1.67095
-1.64546
-1.59479
-1.56862
-1.61929
-1.59479
-1.5451
-1.51893
-1.56862
-1.5451
-1.4964
-1.47023
-1.51893
-1.4964
-1.44869
-1.42252
-1.47023
-1.44869
-1.40197
-1.3758
-1.42252
-1.40197
-1.35623
-1.33006
-1.3758
-1.35623
-1.31148
-1.28531
-1.33006
-1.31148
-1.26772
-1.24155
-1.28531
-1.26772
-1.22495
-1.19878
-1.24155
-1.22495
-1.18316
-1.15699
-1.19878
-1.18316
-1.14237
-1.11619
-1.15699
-1.14237
-1.10255
-1.07638
-1.11619
-1.10255
-1.06373
-1.03756
-1.07638
-1.06373
-1.0259
-0.999724
-1.03756
-1.0259
-0.98905
-0.962877
-0.999724
-0.98905
-0.95319
-0.927017
-0.962877
-0.95319
-0.918318
-0.892145
-0.927017
-0.918318
-0.884434
-0.858261
-0.892145
-0.884434
-0.851537
-0.825364
-0.858261
-0.851537
-0.819628
-0.793455
-0.825364
-0.819628
-0.788706
-0.762533
-0.793455
-0.788706
-0.758773
-0.7326
-0.762533
-0.758773
-0.729826
-0.703654
-0.7326
-0.729826
-0.701868
-0.675695
-0.703654
-0.701868
-0.674897
-0.648724
-0.675695
-0.674897
-0.648914
-0.622741
-0.648724
-0.648914
-0.623918
-0.597746
-0.622741
-0.623918
-0.599911
-0.573738
-0.597746
-0.599911
-0.57689
-0.550718
-0.573738
-0.57689
-0.554858
-0.528685
-0.550718
-0.554858
-0.533813
-0.50764
-0.528685
-0.533813
-0.513756
-0.487583
-0.50764
-0.513756
-0.494686
-0.468513
-0.487583
-0.494686
-0.476604
-0.450431
-0.468513
-0.476604
-0.45951
-0.433337
-0.450431
-0.45951
-0.443403
-0.41723
-0.433337
-0.443403
-0.428284
-0.402111
-0.41723
-0.428284
-0.414153
-0.38798
-0.402111
-0.414153
-0.401009
-0.374836
-0.38798
-0.401009
-0.388853
-0.36268
-0.374836
-0.388853
-0.377685
-0.351512
-0.36268
-0.377685
-0.367504
-0.341331
-0.351512
-0.367504
-0.358311
-0.332138
-0.341331
-0.358311
-0.350106
-0.323933
-0.332138
-0.350106
-0.342888
-0.316715
-0.323933
-0.342888
-0.336658
-0.310485
-0.316715
-0.336658
-0.331416
-0.305243
-0.310485
-0.331416
-0.327161
-0.300988
-0.305243
-0.327161
-0.323894
-0.297721
-0.300988
-0.323894
-0.321614
-0.295441
-0.297721
-0.321614
-0.320322
-0.29415
-0.295441
-0.320322
-0.320018
-0.293845
-0.29415
-0.320018
-0.320702
-0.294529
-0.293845
-0.320702
-0.322373
-0.2962
-0.294529
-0.322373
-0.325032
-0.298859
-0.2962
-0.325032
-0.328678
-0.302505
-0.298859
-0.328678
-0.333312
-0.307139
-0.302505
-0.333312
-0.338934
-0.312761
-0.307139
-0.338934
-0.345543
-0.319371
-0.312761
-0.345543
-0.353141
-0.326968
-0.319371
-0.353141
-0.361725
-0.335552
-0.326968
-0.361725
-0.371298
-0.345125
-0.335552
-0.371298
-0.381858
-0.355685
-0.345125
-0.381858
-0.393405
-0.367233
-0.355685
-0.393405
-0.405941
-0.379768
-0.367233
-0.405941
-0.419464
-0.393291
-0.379768
-0.419464
-0.433974
-0.407802
-0.393291
-0.433974
-0.449473
-0.4233
-0.407802
-0.449473
-0.465959
-0.439786
-0.4233
-0.465959
-0.483432
-0.457259
-0.439786
-0.483432
-0.501894
-0.475721
-0.457259
-0.501894
-0.521342
-0.49517
-0.475721
-0.521342
-0.541779
-0.515606
-0.49517
-0.541779
-0.563203
-0.53703
-0.515606
-0.563203
-0.585615
-0.559442
-0.53703
-0.585615
-0.609015
-0.582842
-0.559442
-0.609015
-0.633402
-0.607229
-0.582842
-0.633402
-0.658777
-0.632604
-0.607229
-0.658777
-0.685139
-0.658966
-0.632604
-0.685139
-0.712489
-0.686317
-0.658966
-0.712489
-0.740827
-0.714654
-0.686317
-0.740827
-0.770153
-0.74398
-0.714654
-0.770153
-0.800466
-0.774293
-0.74398
-0.800466
-0.831767
-0.805594
-0.774293
-0.831767
-0.864055
-0.837882
-0.805594
-0.864055
-0.897331
-0.871158
-0.837882
-0.897331
-0.931595
-0.905422
-0.871158
-0.931595
-0.966846
-0.940674
-0.905422
-5.11507
-5.01797
-4.99279
-5.08988
-5.01797
-4.92187
-4.89668
-4.99279
-4.92187
-4.82675
-4.80156
-4.89668
-4.82675
-4.73262
-4.70743
-4.80156
-4.73262
-4.63947
-4.61429
-4.70743
-4.63947
-4.54732
-4.52213
-4.61429
-4.54732
-4.45615
-4.43096
-4.52213
-4.45615
-4.36597
-4.34078
-4.43096
-4.36597
-4.27677
-4.25159
-4.34078
-4.27677
-4.18857
-4.16338
-4.25159
-4.18857
-4.10135
-4.07617
-4.16338
-4.10135
-4.01512
-3.98994
-4.07617
-4.01512
-3.92988
-3.90469
-3.98994
-3.92988
-3.84562
-3.82044
-3.90469
-3.84562
-3.76236
-3.73717
-3.82044
-3.76236
-3.68008
-3.65489
-3.73717
-3.68008
-3.59879
-3.5736
-3.65489
-3.59879
-3.51848
-3.4933
-3.5736
-3.51848
-3.43917
-3.41398
-3.4933
-3.43917
-3.36084
-3.33565
-3.41398
-3.36084
-3.2835
-3.25831
-3.33565
-3.2835
-3.20714
-3.18196
-3.25831
-3.20714
-3.13178
-3.10659
-3.18196
-3.13178
-3.0574
-3.03221
-3.10659
-3.0574
-2.98401
-2.95882
-3.03221
-2.98401
-2.9116
-2.88642
-2.95882
-2.9116
-2.84019
-2.815
-2.88642
-2.84019
-2.76976
-2.74458
-2.815
-2.76976
-2.70032
-2.67514
-2.74458
-2.70032
-2.63187
-2.60668
-2.67514
-2.63187
-2.5644
-2.53922
-2.60668
-2.5644
-2.49793
-2.47274
-2.53922
-2.49793
-2.43244
-2.40725
-2.47274
-2.43244
-2.36794
-2.34275
-2.40725
-2.36794
-2.30442
-2.27924
-2.34275
-2.30442
-2.2419
-2.21671
-2.27924
-2.2419
-2.18036
-2.15517
-2.21671
-2.18036
-2.11981
-2.09462
-2.15517
-2.11981
-2.06024
-2.03506
-2.09462
-2.06024
-2.00167
-1.97648
-2.03506
-2.00167
-1.94408
-1.91889
-1.97648
-1.94408
-1.88748
-1.86229
-1.91889
-1.88748
-1.83187
-1.80668
-1.86229
-1.83187
-1.77724
-1.75206
-1.80668
-1.77724
-1.7236
-1.69842
-1.75206
-1.7236
-1.67095
-1.64577
-1.69842
-1.67095
-1.61929
-1.59411
-1.64577
-1.61929
-1.56862
-1.54343
-1.59411
-1.56862
-1.51893
-1.49374
-1.54343
-1.51893
-1.47023
-1.44505
-1.49374
-1.47023
-1.42252
-1.39733
-1.44505
-1.42252
-1.3758
-1.35061
-1.39733
-1.3758
-1.33006
-1.30487
-1.35061
-1.33006
-1.28531
-1.26012
-1.30487
-1.28531
-1.24155
-1.21636
-1.26012
-1.24155
-1.19878
-1.17359
-1.21636
-1.19878
-1.15699
-1.13181
-1.17359
-1.15699
-1.11619
-1.09101
-1.13181
-1.11619
-1.07638
-1.0512
-1.09101
-1.07638
-1.03756
-1.01237
-1.0512
-1.03756
-0.999724
-0.974539
-1.01237
-0.999724
-0.962877
-0.937692
-0.974539
-0.962877
-0.927017
-0.901832
-0.937692
-0.927017
-0.892145
-0.86696
-0.901832
-0.892145
-0.858261
-0.833076
-0.86696
-0.858261
-0.825364
-0.800179
-0.833076
-0.825364
-0.793455
-0.76827
-0.800179
-0.793455
-0.762533
-0.737348
-0.76827
-0.762533
-0.7326
-0.707415
-0.737348
-0.7326
-0.703654
-0.678468
-0.707415
-0.703654
-0.675695
-0.65051
-0.678468
-0.675695
-0.648724
-0.623539
-0.65051
-0.648724
-0.622741
-0.597556
-0.623539
-0.622741
-0.597746
-0.57256
-0.597556
-0.597746
-0.573738
-0.548553
-0.57256
-0.573738
-0.550718
-0.525532
-0.548553
-0.550718
-0.528685
-0.5035
-0.525532
-0.528685
-0.50764
-0.482455
-0.5035
-0.50764
-0.487583
-0.462398
-0.482455
-0.487583
-0.468513
-0.443328
-0.462398
-0.468513
-0.450431
-0.425246
-0.443328
-0.450431
-0.433337
-0.408152
-0.425246
-0.433337
-0.41723
-0.392045
-0.408152
-0.41723
-0.402111
-0.376926
-0.392045
-0.402111
-0.38798
-0.362795
-0.376926
-0.38798
-0.374836
-0.349651
-0.362795
-0.374836
-0.36268
-0.337495
-0.349651
-0.36268
-0.351512
-0.326327
-0.337495
-0.351512
-0.341331
-0.316146
-0.326327
-0.341331
-0.332138
-0.306953
-0.316146
-0.332138
-0.323933
-0.298748
-0.306953
-0.323933
-0.316715
-0.29153
-0.298748
-0.316715
-0.310485
-0.2853
-0.29153
-0.310485
-0.305243
-0.280058
-0.2853
-0.305243
-0.300988
-0.275803
-0.280058
-0.300988
-0.297721
-0.272536
-0.275803
-0.297721
-0.295441
-0.270256
-0.272536
-0.295441
-0.29415
-0.268964
-0.270256
-0.29415
-0.293845
-0.26866
-0.268964
-0.293845
-0.294529
-0.269344
-0.26866
-0.294529
-0.2962
-0.271015
-0.269344
-0.2962
-0.298859
-0.273674
-0.271015
-0.298859
-0.302505
-0.27732
-0.273674
-0.302505
-0.307139
-0.281954
-0.27732
-0.307139
-0.312761
-0.287576
-0.281954
-0.312761
-0.319371
-0.294185
-0.287576
-0.319371
-0.326968
-0.301782
-0.294185
-0.326968
-0.335552
-0.310367
-0.301782
-0.335552
-0.345125
-0.31994
-0.310367
-0.345125
-0.355685
-0.3305
-0.31994
-0.355685
-0.367233
-0.342047
-0.3305
-0.367233
-0.379768
-0.354583
-0.342047
-0.379768
-0.393291
-0.368106
-0.354583
-0.393291
-0.407802
-0.382616
-0.368106
-0.407802
-0.4233
-0.398115
-0.382616
-0.4233
-0.439786
-0.414601
-0.398115
-0.439786
-0.457259
-0.432074
-0.414601
-0.457259
-0.475721
-0.450536
-0.432074
-0.475721
-0.49517
-0.469984
-0.450536
-0.49517
-0.515606
-0.490421
-0.469984
-0.515606
-0.53703
-0.511845
-0.490421
-0.53703
-0.559442
-0.534257
-0.511845
-0.559442
-0.582842
-0.557657
-0.534257
-0.582842
-0.607229
-0.582044
-0.557657
-0.607229
-0.632604
-0.607419
-0.582044
-0.632604
-0.658966
-0.633781
-0.607419
-0.658966
-0.686317
-0.661131
-0.633781
-0.686317
-0.714654
-0.689469
-0.661131
-0.714654
-0.74398
-0.718795
-0.689469
-0.74398
-0.774293
-0.749108
-0.718795
-0.774293
-0.805594
-0.780409
-0.749108
-0.805594
-0.837882
-0.812697
-0.780409
-0.837882
-0.871158
-0.845973
-0.812697
-0.871158
-0.905422
-0.880237
-0.845973
-0.905422
-0.940674
-0.915488
-0.880237
-5.08988
-4.99279
-4.96859
-5.06569
-4.99279
-4.89668
-4.87248
-4.96859
-4.89668
-4.80156
-4.77737
-4.87248
-4.80156
-4.70743
-4.68323
-4.77737
-4.70743
-4.61429
-4.59009
-4.68323
-4.61429
-4.52213
-4.49793
-4.59009
-4.52213
-4.43096
-4.40677
-4.49793
-4.43096
-4.34078
-4.31659
-4.40677
-4.34078
-4.25159
-4.22739
-4.31659
-4.25159
-4.16338
-4.13919
-4.22739
-4.16338
-4.07617
-4.05197
-4.13919
-4.07617
-3.98994
-3.96574
-4.05197
-3.98994
-3.90469
-3.8805
-3.96574
-3.90469
-3.82044
-3.79624
-3.8805
-3.82044
-3.73717
-3.71297
-3.79624
-3.73717
-3.65489
-3.6307
-3.71297
-3.65489
-3.5736
-3.5494
-3.6307
-3.5736
-3.4933
-3.4691
-3.5494
-3.4933
-3.41398
-3.38978
-3.4691
-3.41398
-3.33565
-3.31145
-3.38978
-3.33565
-3.25831
-3.23411
-3.31145
-3.25831
-3.18196
-3.15776
-3.23411
-3.18196
-3.10659
-3.08239
-3.15776
-3.10659
-3.03221
-3.00802
-3.08239
-3.03221
-2.95882
-2.93462
-3.00802
-2.95882
-2.88642
-2.86222
-2.93462
-2.88642
-2.815
-2.79081
-2.86222
-2.815
-2.74458
-2.72038
-2.79081
-2.74458
-2.67514
-2.65094
-2.72038
-2.67514
-2.60668
-2.58249
-2.65094
-2.60668
-2.53922
-2.51502
-2.58249
-2.53922
-2.47274
-2.44854
-2.51502
-2.47274
-2.40725
-2.38306
-2.44854
-2.40725
-2.34275
-2.31855
-2.38306
-2.34275
-2.27924
-2.25504
-2.31855
-2.27924
-2.21671
-2.19251
-2.25504
-2.21671
-2.15517
-2.13097
-2.19251
-2.15517
-2.09462
-2.07042
-2.13097
-2.09462
-2.03506
-2.01086
-2.07042
-2.03506
-1.97648
-1.95228
-2.01086
-1.97648
-1.91889
-1.8947
-1.95228
-1.91889
-1.86229
-1.8381
-1.8947
-1.86229
-1.80668
-1.78248
-1.8381
-1.80668
-1.75206
-1.72786
-1.78248
-1.75206
-1.69842
-1.67422
-1.72786
-1.69842
-1.64577
-1.62157
-1.67422
-1.64577
-1.59411
-1.56991
-1.62157
-1.59411
-1.54343
-1.51923
-1.56991
-1.54343
-1.49374
-1.46955
-1.51923
-1.49374
-1.44505
-1.42085
-1.46955
-1.44505
-1.39733
-1.37314
-1.42085
-1.39733
-1.35061
-1.32641
-1.37314
-1.35061
-1.30487
-1.28068
-1.32641
-1.30487
-1.26012
-1.23593
-1.28068
-1.26012
-1.21636
-1.19217
-1.23593
-1.21636
-1.17359
-1.14939
-1.19217
-1.17359
-1.13181
-1.10761
-1.14939
-1.13181
-1.09101
-1.06681
-1.10761
-1.09101
-1.0512
-1.027
-1.06681
-1.0512
-1.01237
-0.988177
-1.027
-1.01237
-0.974539
-0.950342
-0.988177
-0.974539
-0.937692
-0.913494
-0.950342
-0.937692
-0.901832
-0.877635
-0.913494
-0.901832
-0.86696
-0.842762
-0.877635
-0.86696
-0.833076
-0.808878
-0.842762
-0.833076
-0.800179
-0.775981
-0.808878
-0.800179
-0.76827
-0.744072
-0.775981
-0.76827
-0.737348
-0.713151
-0.744072
-0.737348
-0.707415
-0.683217
-0.713151
-0.707415
-0.678468
-0.654271
-0.683217
-0.678468
-0.65051
-0.626312
-0.654271
-0.65051
-0.623539
-0.599342
-0.626312
-0.623539
-0.597556
-0.573358
-0.599342
-0.597556
-0.57256
-0.548363
-0.573358
-0.57256
-0.548553
-0.524355
-0.548363
-0.548553
-0.525532
-0.501335
-0.524355
-0.525532
-0.5035
-0.479302
-0.501335
-0.5035
-0.482455
-0.458257
-0.479302
-0.482455
-0.462398
-0.4382
-0.458257
-0.462398
-0.443328
-0.419131
-0.4382
-0.443328
-0.425246
-0.401049
-0.419131
-0.425246
-0.408152
-0.383954
-0.401049
-0.408152
-0.392045
-0.367848
-0.383954
-0.392045
-0.376926
-0.352729
-0.367848
-0.376926
-0.362795
-0.338597
-0.352729
-0.362795
-0.349651
-0.325454
-0.338597
-0.349651
-0.337495
-0.313298
-0.325454
-0.337495
-0.326327
-0.302129
-0.313298
-0.326327
-0.316146
-0.291949
-0.302129
-0.316146
-0.306953
-0.282756
-0.291949
-0.306953
-0.298748
-0.27455
-0.282756
-0.298748
-0.29153
-0.267332
-0.27455
-0.29153
-0.2853
-0.261102
-0.267332
-0.2853
-0.280058
-0.25586
-0.261102
-0.280058
-0.275803
-0.251605
-0.25586
-0.275803
-0.272536
-0.248338
-0.251605
-0.272536
-0.270256
-0.246059
-0.248338
-0.270256
-0.268964
-0.244767
-0.246059
-0.268964
-0.26866
-0.244463
-0.244767
-0.26866
-0.269344
-0.245146
-0.244463
-0.269344
-0.271015
-0.246817
-0.245146
-0.271015
-0.273674
-0.249476
-0.246817
-0.273674
-0.27732
-0.253123
-0.249476
-0.27732
-0.281954
-0.257757
-0.253123
-0.281954
-0.287576
-0.263378
-0.257757
-0.287576
-0.294185
-0.269988
-0.263378
-0.294185
-0.301782
-0.277585
-0.269988
-0.301782
-0.310367
-0.28617
-0.277585
-0.310367
-0.31994
-0.295742
-0.28617
-0.31994
-0.3305
-0.306302
-0.295742
-0.3305
-0.342047
-0.31785
-0.306302
-0.342047
-0.354583
-0.330385
-0.31785
-0.354583
-0.368106
-0.343908
-0.330385
-0.368106
-0.382616
-0.358419
-0.343908
-0.382616
-0.398115
-0.373917
-0.358419
-0.398115
-0.414601
-0.390403
-0.373917
-0.414601
-0.432074
-0.407877
-0.390403
-0.432074
-0.450536
-0.426338
-0.407877
-0.450536
-0.469984
-0.445787
-0.426338
-0.469984
-0.490421
-0.466224
-0.445787
-0.490421
-0.511845
-0.487648
-0.466224
-0.511845
-0.534257
-0.51006
-0.487648
-0.534257
-0.557657
-0.533459
-0.51006
-0.557657
-0.582044
-0.557846
-0.533459
-0.582044
-0.607419
-0.583221
-0.557846
-0.607419
-0.633781
-0.609584
-0.583221
-0.633781
-0.661131
-0.636934
-0.609584
-0.661131
-0.689469
-0.665272
-0.636934
-0.689469
-0.718795
-0.694597
-0.665272
-0.718795
-0.749108
-0.72491
-0.694597
-0.749108
-0.780409
-0.756211
-0.72491
-0.780409
-0.812697
-0.7885
-0.756211
-0.812697
-0.845973
-0.821776
-0.7885
-0.845973
-0.880237
-0.856039
-0.821776
-0.880237
-0.915488
-0.891291
-0.856039
-5.06569
-4.96859
-4.94538
-5.04248
-4.96859
-4.87248
-4.84927
-4.94538
-4.87248
-4.77737
-4.75416
-4.84927
-4.77737
-4.68323
-4.66002
-4.75416
-4.68323
-4.59009
-4.56688
-4.66002
-4.59009
-4.49793
-4.47472
-4.56688
-4.49793
-4.40677
-4.38356
-4.47472
-4.40677
-4.31659
-4.29338
-4.38356
-4.31659
-4.22739
-4.20418
-4.29338
-4.22739
-4.13919
-4.11598
-4.20418
-4.13919
-4.05197
-4.02876
-4.11598
-4.05197
-3.96574
-3.94253
-4.02876
-3.96574
-3.8805
-3.85729
-3.94253
-3.8805
-3.79624
-3.77303
-3.85729
-3.79624
-3.71297
-3.68976
-3.77303
-3.71297
-3.6307
-3.60749
-3.68976
-3.6307
-3.5494
-3.52619
-3.60749
-3.5494
-3.4691
-3.44589
-3.52619
-3.4691
-3.38978
-3.36657
-3.44589
-3.38978
-3.31145
-3.28824
-3.36657
-3.31145
-3.23411
-3.2109
-3.28824
-3.23411
-3.15776
-3.13455
-3.2109
-3.15776
-3.08239
-3.05918
-3.13455
-3.08239
-3.00802
-2.98481
-3.05918
-3.00802
-2.93462
-2.91141
-2.98481
-2.93462
-2.86222
-2.83901
-2.91141
-2.86222
-2.79081
-2.7676
-2.83901
-2.79081
-2.72038
-2.69717
-2.7676
-2.72038
-2.65094
-2.62773
-2.69717
-2.65094
-2.58249
-2.55928
-2.62773
-2.58249
-2.51502
-2.49181
-2.55928
-2.51502
-2.44854
-2.42533
-2.49181
-2.44854
-2.38306
-2.35985
-2.42533
-2.38306
-2.31855
-2.29534
-2.35985
-2.31855
-2.25504
-2.23183
-2.29534
-2.25504
-2.19251
-2.1693
-2.23183
-2.19251
-2.13097
-2.10776
-2.1693
-2.13097
-2.07042
-2.04721
-2.10776
-2.07042
-2.01086
-1.98765
-2.04721
-2.01086
-1.95228
-1.92907
-1.98765
-1.95228
-1.8947
-1.87149
-1.92907
-1.8947
-1.8381
-1.81489
-1.87149
-1.8381
-1.78248
-1.75927
-1.81489
-1.78248
-1.72786
-1.70465
-1.75927
-1.72786
-1.67422
-1.65101
-1.70465
-1.67422
-1.62157
-1.59836
-1.65101
-1.62157
-1.56991
-1.5467
-1.59836
-1.56991
-1.51923
-1.49602
-1.5467
-1.51923
-1.46955
-1.44634
-1.49602
-1.46955
-1.42085
-1.39764
-1.44634
-1.42085
-1.37314
-1.34993
-1.39764
-1.37314
-1.32641
-1.3032
-1.34993
-1.32641
-1.28068
-1.25747
-1.3032
-1.28068
-1.23593
-1.21272
-1.25747
-1.23593
-1.19217
-1.16896
-1.21272
-1.19217
-1.14939
-1.12618
-1.16896
-1.14939
-1.10761
-1.0844
-1.12618
-1.10761
-1.06681
-1.0436
-1.0844
-1.06681
-1.027
-1.00379
-1.0436
-1.027
-0.988177
-0.964967
-1.00379
-0.988177
-0.950342
-0.927132
-0.964967
-0.950342
-0.913494
-0.890284
-0.927132
-0.913494
-0.877635
-0.854425
-0.890284
-0.877635
-0.842762
-0.819553
-0.854425
-0.842762
-0.808878
-0.785668
-0.819553
-0.808878
-0.775981
-0.752771
-0.785668
-0.775981
-0.744072
-0.720862
-0.752771
-0.744072
-0.713151
-0.689941
-0.720862
-0.713151
-0.683217
-0.660007
-0.689941
-0.683217
-0.654271
-0.631061
-0.660007
-0.654271
-0.626312
-0.603102
-0.631061
-0.626312
-0.599342
-0.576132
-0.603102
-0.599342
-0.573358
-0.550148
-0.576132
-0.573358
-0.548363
-0.525153
-0.550148
-0.548363
-0.524355
-0.501145
-0.525153
-0.524355
-0.501335
-0.478125
-0.501145
-0.501335
-0.479302
-0.456092
-0.478125
-0.479302
-0.458257
-0.435047
-0.456092
-0.458257
-0.4382
-0.41499
-0.435047
-0.4382
-0.419131
-0.395921
-0.41499
-0.419131
-0.401049
-0.377839
-0.395921
-0.401049
-0.383954
-0.360744
-0.377839
-0.383954
-0.367848
-0.344638
-0.360744
-0.367848
-0.352729
-0.329519
-0.344638
-0.352729
-0.338597
-0.315388
-0.329519
-0.338597
-0.325454
-0.302244
-0.315388
-0.325454
-0.313298
-0.290088
-0.302244
-0.313298
-0.302129
-0.278919
-0.290088
-0.302129
-0.291949
-0.268739
-0.278919
-0.291949
-0.282756
-0.259546
-0.268739
-0.282756
-0.27455
-0.25134
-0.259546
-0.27455
-0.267332
-0.244123
-0.25134
-0.267332
-0.261102
-0.237893
-0.244123
-0.261102
-0.25586
-0.23265
-0.237893
-0.25586
-0.251605
-0.228395
-0.23265
-0.251605
-0.248338
-0.225128
-0.228395
-0.248338
-0.246059
-0.222849
-0.225128
-0.246059
-0.244767
-0.221557
-0.222849
-0.244767
-0.244463
-0.221253
-0.221557
-0.244463
-0.245146
-0.221936
-0.221253
-0.245146
-0.246817
-0.223607
-0.221936
-0.246817
-0.249476
-0.226266
-0.223607
-0.249476
-0.253123
-0.229913
-0.226266
-0.253123
-0.257757
-0.234547
-0.229913
-0.257757
-0.263378
-0.240169
-0.234547
-0.263378
-0.269988
-0.246778
-0.240169
-0.269988
-0.277585
-0.254375
-0.246778
-0.277585
-0.28617
-0.26296
-0.254375
-0.28617
-0.295742
-0.272532
-0.26296
-0.295742
-0.306302
-0.283092
-0.272532
-0.306302
-0.31785
-0.29464
-0.283092
-0.31785
-0.330385
-0.307175
-0.29464
-0.330385
-0.343908
-0.320698
-0.307175
-0.343908
-0.358419
-0.335209
-0.320698
-0.358419
-0.373917
-0.350707
-0.335209
-0.373917
-0.390403
-0.367193
-0.350707
-0.390403
-0.407877
-0.384667
-0.367193
-0.407877
-0.426338
-0.403128
-0.384667
-0.426338
-0.445787
-0.422577
-0.403128
-0.445787
-0.466224
-0.443014
-0.422577
-0.466224
-0.487648
-0.464438
-0.443014
-0.487648
-0.51006
-0.48685
-0.464438
-0.51006
-0.533459
-0.510249
-0.48685
-0.533459
-0.557846
-0.534637
-0.510249