# vtk DataFile Version 1.0
unstructured Grid
ASCII
DATASET UNSTRUCTURED_GRID
POINTS 23440 float 
0 0	 0.0
0.0222222 0	 0.0
0.0222222 0.0222222	 0.0
0 0.0222222	 0.0
0.0222222 0	 0.0
0.0444444 0	 0.0
0.0444444 0.0222222	 0.0
0.0222222 0.0222222	 0.0
0.0444444 0	 0.0
0.0666667 0	 0.0
0.0666667 0.0222222	 0.0
0.0444444 0.0222222	 0.0
0.0666667 0	 0.0
0.0888889 0	 0.0
0.0888889 0.0222222	 0.0
0.0666667 0.0222222	 0.0
0.0888889 0	 0.0
0.111111 0	 0.0
0.111111 0.0222222	 0.0
0.0888889 0.0222222	 0.0
0.111111 0	 0.0
0.133333 0	 0.0
0.133333 0.0222222	 0.0
0.111111 0.0222222	 0.0
0.133333 0	 0.0
0.155556 0	 0.0
0.155556 0.0222222	 0.0
0.133333 0.0222222	 0.0
0.155556 0	 0.0
0.177778 0	 0.0
0.177778 0.0222222	 0.0
0.155556 0.0222222	 0.0
0.177778 0	 0.0
0.2 0	 0.0
0.2 0.0222222	 0.0
0.177778 0.0222222	 0.0
0.2 0	 0.0
0.222222 0	 0.0
0.222222 0.0222222	 0.0
0.2 0.0222222	 0.0
0.222222 0	 0.0
0.244444 0	 0.0
0.244444 0.0222222	 0.0
0.222222 0.0222222	 0.0
0.244444 0	 0.0
0.266667 0	 0.0
0.266667 0.0222222	 0.0
0.244444 0.0222222	 0.0
0.266667 0	 0.0
0.288889 0	 0.0
0.288889 0.0222222	 0.0
0.266667 0.0222222	 0.0
0.288889 0	 0.0
0.311111 0	 0.0
0.311111 0.0222222	 0.0
0.288889 0.0222222	 0.0
0.311111 0	 0.0
0.333333 0	 0.0
0.333333 0.0222222	 0.0
0.311111 0.0222222	 0.0
0.333333 0	 0.0
0.355556 0	 0.0
0.355556 0.0222222	 0.0
0.333333 0.0222222	 0.0
0.355556 0	 0.0
0.377778 0	 0.0
0.377778 0.0222222	 0.0
0.355556 0.0222222	 0.0
0.377778 0	 0.0
0.4 0	 0.0
0.4 0.0222222	 0.0
0.377778 0.0222222	 0.0
0.4 0	 0.0
0.422222 0	 0.0
0.422222 0.0222222	 0.0
0.4 0.0222222	 0.0
0.422222 0	 0.0
0.444444 0	 0.0
0.444444 0.0222222	 0.0
0.422222 0.0222222	 0.0
0.444444 0	 0.0
0.466667 0	 0.0
0.466667 0.0222222	 0.0
0.444444 0.0222222	 0.0
0.466667 0	 0.0
0.488889 0	 0.0
0.488889 0.0222222	 0.0
0.466667 0.0222222	 0.0
0.488889 0	 0.0
0.511111 0	 0.0
0.511111 0.0222222	 0.0
0.488889 0.0222222	 0.0
0.511111 0	 0.0
0.533333 0	 0.0
0.533333 0.0222222	 0.0
0.511111 0.0222222	 0.0
0.533333 0	 0.0
0.555556 0	 0.0
0.555556 0.0222222	 0.0
0.533333 0.0222222	 0.0
0.555556 0	 0.0
0.577778 0	 0.0
0.577778 0.0222222	 0.0
0.555556 0.0222222	 0.0
0.577778 0	 0.0
0.6 0	 0.0
0.6 0.0222222	 0.0
0.577778 0.0222222	 0.0
0.6 0	 0.0
0.622222 0	 0.0
0.622222 0.0222222	 0.0
0.6 0.0222222	 0.0
0.622222 0	 0.0
0.644444 0	 0.0
0.644444 0.0222222	 0.0
0.622222 0.0222222	 0.0
0.644444 0	 0.0
0.666667 0	 0.0
0.666667 0.0222222	 0.0
0.644444 0.0222222	 0.0
0.666667 0	 0.0
0.688889 0	 0.0
0.688889 0.0222222	 0.0
0.666667 0.0222222	 0.0
0.688889 0	 0.0
0.711111 0	 0.0
0.711111 0.0222222	 0.0
0.688889 0.0222222	 0.0
0.711111 0	 0.0
0.733333 0	 0.0
0.733333 0.0222222	 0.0
0.711111 0.0222222	 0.0
0.733333 0	 0.0
0.755556 0	 0.0
0.755556 0.0222222	 0.0
0.733333 0.0222222	 0.0
0.755556 0	 0.0
0.777778 0	 0.0
0.777778 0.0222222	 0.0
0.755556 0.0222222	 0.0
0.777778 0	 0.0
0.8 0	 0.0
0.8 0.0222222	 0.0
0.777778 0.0222222	 0.0
0.8 0	 0.0
0.822222 0	 0.0
0.822222 0.0222222	 0.0
0.8 0.0222222	 0.0
0.822222 0	 0.0
0.844444 0	 0.0
0.844444 0.0222222	 0.0
0.822222 0.0222222	 0.0
0.844444 0	 0.0
0.866667 0	 0.0
0.866667 0.0222222	 0.0
0.844444 0.0222222	 0.0
0.866667 0	 0.0
0.888889 0	 0.0
0.888889 0.0222222	 0.0
0.866667 0.0222222	 0.0
0.888889 0	 0.0
0.911111 0	 0.0
0.911111 0.0222222	 0.0
0.888889 0.0222222	 0.0
0.911111 0	 0.0
0.933333 0	 0.0
0.933333 0.0222222	 0.0
0.911111 0.0222222	 0.0
0.933333 0	 0.0
0.955556 0	 0.0
0.955556 0.0222222	 0.0
0.933333 0.0222222	 0.0
0.955556 0	 0.0
0.977778 0	 0.0
0.977778 0.0222222	 0.0
0.955556 0.0222222	 0.0
0.977778 0	 0.0
1 0	 0.0
1 0.0222222	 0.0
0.977778 0.0222222	 0.0
1 0	 0.0
1.02222 0	 0.0
1.02222 0.0222222	 0.0
1 0.0222222	 0.0
1.02222 0	 0.0
1.04444 0	 0.0
1.04444 0.0222222	 0.0
1.02222 0.0222222	 0.0
1.04444 0	 0.0
1.06667 0	 0.0
1.06667 0.0222222	 0.0
1.04444 0.0222222	 0.0
1.06667 0	 0.0
1.08889 0	 0.0
1.08889 0.0222222	 0.0
1.06667 0.0222222	 0.0
1.08889 0	 0.0
1.11111 0	 0.0
1.11111 0.0222222	 0.0
1.08889 0.0222222	 0.0
1.11111 0	 0.0
1.13333 0	 0.0
1.13333 0.0222222	 0.0
1.11111 0.0222222	 0.0
1.13333 0	 0.0
1.15556 0	 0.0
1.15556 0.0222222	 0.0
1.13333 0.0222222	 0.0
1.15556 0	 0.0
1.17778 0	 0.0
1.17778 0.0222222	 0.0
1.15556 0.0222222	 0.0
1.17778 0	 0.0
1.2 0	 0.0
1.2 0.0222222	 0.0
1.17778 0.0222222	 0.0
1.2 0	 0.0
1.22222 0	 0.0
1.22222 0.0222222	 0.0
1.2 0.0222222	 0.0
1.22222 0	 0.0
1.24444 0	 0.0
1.24444 0.0222222	 0.0
1.22222 0.0222222	 0.0
1.24444 0	 0.0
1.26667 0	 0.0
1.26667 0.0222222	 0.0
1.24444 0.0222222	 0.0
1.26667 0	 0.0
1.28889 0	 0.0
1.28889 0.0222222	 0.0
1.26667 0.0222222	 0.0
1.28889 0	 0.0
1.31111 0	 0.0
1.31111 0.0222222	 0.0
1.28889 0.0222222	 0.0
1.31111 0	 0.0
1.33333 0	 0.0
1.33333 0.0222222	 0.0
1.31111 0.0222222	 0.0
1.33333 0	 0.0
1.35556 0	 0.0
1.35556 0.0222222	 0.0
1.33333 0.0222222	 0.0
1.35556 0	 0.0
1.37778 0	 0.0
1.37778 0.0222222	 0.0
1.35556 0.0222222	 0.0
1.37778 0	 0.0
1.4 0	 0.0
1.4 0.0222222	 0.0
1.37778 0.0222222	 0.0
1.4 0	 0.0
1.42222 0	 0.0
1.42222 0.0222222	 0.0
1.4 0.0222222	 0.0
1.42222 0	 0.0
1.44444 0	 0.0
1.44444 0.0222222	 0.0
1.42222 0.0222222	 0.0
1.44444 0	 0.0
1.46667 0	 0.0
1.46667 0.0222222	 0.0
1.44444 0.0222222	 0.0
1.46667 0	 0.0
1.48889 0	 0.0
1.48889 0.0222222	 0.0
1.46667 0.0222222	 0.0
1.48889 0	 0.0
1.51111 0	 0.0
1.51111 0.0222222	 0.0
1.48889 0.0222222	 0.0
1.51111 0	 0.0
1.53333 0	 0.0
1.53333 0.0222222	 0.0
1.51111 0.0222222	 0.0
1.53333 0	 0.0
1.55556 0	 0.0
1.55556 0.0222222	 0.0
1.53333 0.0222222	 0.0
1.55556 0	 0.0
1.57778 0	 0.0
1.57778 0.0222222	 0.0
1.55556 0.0222222	 0.0
1.57778 0	 0.0
1.6 0	 0.0
1.6 0.0222222	 0.0
1.57778 0.0222222	 0.0
1.6 0	 0.0
1.62222 0	 0.0
1.62222 0.0222222	 0.0
1.6 0.0222222	 0.0
1.62222 0	 0.0
1.64444 0	 0.0
1.64444 0.0222222	 0.0
1.62222 0.0222222	 0.0
1.64444 0	 0.0
1.66667 0	 0.0
1.66667 0.0222222	 0.0
1.64444 0.0222222	 0.0
1.66667 0	 0.0
1.68889 0	 0.0
1.68889 0.0222222	 0.0
1.66667 0.0222222	 0.0
1.68889 0	 0.0
1.71111 0	 0.0
1.71111 0.0222222	 0.0
1.68889 0.0222222	 0.0
1.71111 0	 0.0
1.73333 0	 0.0
1.73333 0.0222222	 0.0
1.71111 0.0222222	 0.0
1.73333 0	 0.0
1.75556 0	 0.0
1.75556 0.0222222	 0.0
1.73333 0.0222222	 0.0
1.75556 0	 0.0
1.77778 0	 0.0
1.77778 0.0222222	 0.0
1.75556 0.0222222	 0.0
1.77778 0	 0.0
1.8 0	 0.0
1.8 0.0222222	 0.0
1.77778 0.0222222	 0.0
1.8 0	 0.0
1.82222 0	 0.0
1.82222 0.0222222	 0.0
1.8 0.0222222	 0.0
1.82222 0	 0.0
1.84444 0	 0.0
1.84444 0.0222222	 0.0
1.82222 0.0222222	 0.0
1.84444 0	 0.0
1.86667 0	 0.0
1.86667 0.0222222	 0.0
1.84444 0.0222222	 0.0
1.86667 0	 0.0
1.88889 0	 0.0
1.88889 0.0222222	 0.0
1.86667 0.0222222	 0.0
1.88889 0	 0.0
1.91111 0	 0.0
1.91111 0.0222222	 0.0
1.88889 0.0222222	 0.0
1.91111 0	 0.0
1.93333 0	 0.0
1.93333 0.0222222	 0.0
1.91111 0.0222222	 0.0
1.93333 0	 0.0
1.95556 0	 0.0
1.95556 0.0222222	 0.0
1.93333 0.0222222	 0.0
1.95556 0	 0.0
1.97778 0	 0.0
1.97778 0.0222222	 0.0
1.95556 0.0222222	 0.0
1.97778 0	 0.0
2 0	 0.0
2 0.0222222	 0.0
1.97778 0.0222222	 0.0
2 0	 0.0
2.02222 0	 0.0
2.02222 0.0222222	 0.0
2 0.0222222	 0.0
2.02222 0	 0.0
2.04444 0	 0.0
2.04444 0.0222222	 0.0
2.02222 0.0222222	 0.0
2.04444 0	 0.0
2.06667 0	 0.0
2.06667 0.0222222	 0.0
2.04444 0.0222222	 0.0
2.06667 0	 0.0
2.08889 0	 0.0
2.08889 0.0222222	 0.0
2.06667 0.0222222	 0.0
2.08889 0	 0.0
2.11111 0	 0.0
2.11111 0.0222222	 0.0
2.08889 0.0222222	 0.0
2.11111 0	 0.0
2.13333 0	 0.0
2.13333 0.0222222	 0.0
2.11111 0.0222222	 0.0
2.13333 0	 0.0
2.15556 0	 0.0
2.15556 0.0222222	 0.0
2.13333 0.0222222	 0.0
2.15556 0	 0.0
2.17778 0	 0.0
2.17778 0.0222222	 0.0
2.15556 0.0222222	 0.0
2.17778 0	 0.0
2.2 0	 0.0
2.2 0.0222222	 0.0
2.17778 0.0222222	 0.0
2.2 0	 0.0
2.22222 0	 0.0
2.22222 0.0222222	 0.0
2.2 0.0222222	 0.0
2.22222 0	 0.0
2.24444 0	 0.0
2.24444 0.0222222	 0.0
2.22222 0.0222222	 0.0
2.24444 0	 0.0
2.26667 0	 0.0
2.26667 0.0222222	 0.0
2.24444 0.0222222	 0.0
2.26667 0	 0.0
2.28889 0	 0.0
2.28889 0.0222222	 0.0
2.26667 0.0222222	 0.0
2.28889 0	 0.0
2.31111 0	 0.0
2.31111 0.0222222	 0.0
2.28889 0.0222222	 0.0
2.31111 0	 0.0
2.33333 0	 0.0
2.33333 0.0222222	 0.0
2.31111 0.0222222	 0.0
2.33333 0	 0.0
2.35556 0	 0.0
2.35556 0.0222222	 0.0
2.33333 0.0222222	 0.0
2.35556 0	 0.0
2.37778 0	 0.0
2.37778 0.0222222	 0.0
2.35556 0.0222222	 0.0
2.37778 0	 0.0
2.4 0	 0.0
2.4 0.0222222	 0.0
2.37778 0.0222222	 0.0
2.4 0	 0.0
2.42222 0	 0.0
2.42222 0.0222222	 0.0
2.4 0.0222222	 0.0
2.42222 0	 0.0
2.44444 0	 0.0
2.44444 0.0222222	 0.0
2.42222 0.0222222	 0.0
2.44444 0	 0.0
2.46667 0	 0.0
2.46667 0.0222222	 0.0
2.44444 0.0222222	 0.0
2.46667 0	 0.0
2.48889 0	 0.0
2.48889 0.0222222	 0.0
2.46667 0.0222222	 0.0
2.48889 0	 0.0
2.51111 0	 0.0
2.51111 0.0222222	 0.0
2.48889 0.0222222	 0.0
2.51111 0	 0.0
2.53333 0	 0.0
2.53333 0.0222222	 0.0
2.51111 0.0222222	 0.0
2.53333 0	 0.0
2.55556 0	 0.0
2.55556 0.0222222	 0.0
2.53333 0.0222222	 0.0
2.55556 0	 0.0
2.57778 0	 0.0
2.57778 0.0222222	 0.0
2.55556 0.0222222	 0.0
2.57778 0	 0.0
2.6 0	 0.0
2.6 0.0222222	 0.0
2.57778 0.0222222	 0.0
2.6 0	 0.0
2.62222 0	 0.0
2.62222 0.0222222	 0.0
2.6 0.0222222	 0.0
2.62222 0	 0.0
2.64444 0	 0.0
2.64444 0.0222222	 0.0
2.62222 0.0222222	 0.0
2.64444 0	 0.0
2.66667 0	 0.0
2.66667 0.0222222	 0.0
2.64444 0.0222222	 0.0
2.66667 0	 0.0
2.68889 0	 0.0
2.68889 0.0222222	 0.0
2.66667 0.0222222	 0.0
2.68889 0	 0.0
2.71111 0	 0.0
2.71111 0.0222222	 0.0
2.68889 0.0222222	 0.0
2.71111 0	 0.0
2.73333 0	 0.0
2.73333 0.0222222	 0.0
2.71111 0.0222222	 0.0
2.73333 0	 0.0
2.75556 0	 0.0
2.75556 0.0222222	 0.0
2.73333 0.0222222	 0.0
2.75556 0	 0.0
2.77778 0	 0.0
2.77778 0.0222222	 0.0
2.75556 0.0222222	 0.0
2.77778 0	 0.0
2.8 0	 0.0
2.8 0.0222222	 0.0
2.77778 0.0222222	 0.0
2.8 0	 0.0
2.82222 0	 0.0
2.82222 0.0222222	 0.0
2.8 0.0222222	 0.0
2.82222 0	 0.0
2.84444 0	 0.0
2.84444 0.0222222	 0.0
2.82222 0.0222222	 0.0
2.84444 0	 0.0
2.86667 0	 0.0
2.86667 0.0222222	 0.0
2.84444 0.0222222	 0.0
2.86667 0	 0.0
2.88889 0	 0.0
2.88889 0.0222222	 0.0
2.86667 0.0222222	 0.0
2.88889 0	 0.0
2.91111 0	 0.0
2.91111 0.0222222	 0.0
2.88889 0.0222222	 0.0
2.91111 0	 0.0
[...]
POINT_DATA 23440
SCALARS levelset_first float
LOOKUP_TABLE default
-2.83217
-2.76222
-2.73605
-2.806
-2.76222
-2.69326
-2.66709
-2.73605
-2.69326
-2.62529
-2.59911
-2.66709
-2.62529
-2.5583
-2.53213
-2.59911
-2.5583
-2.4923
-2.46613
-2.53213
-2.4923
-2.42729
-2.40111
-2.46613
-2.42729
-2.36326
-2.33709
-2.40111
-2.36326
-2.30023
-2.27405
-2.33709
-2.30023
-2.23818
-2.21201
-2.27405
-2.23818
-2.17712
-2.15095
-2.21201
-2.17712
-2.11704
-2.09087
-2.15095
-2.11704
-2.05796
-2.03179
-2.09087
-2.05796
-1.99986
-1.97369
-2.03179
-1.99986
-1.94275
-1.91658
-1.97369
-1.94275
-1.88663
-1.86045
-1.91658
-1.88663
-1.83149
-1.80532
-1.86045
-1.83149
-1.77735
-1.75117
-1.80532
-1.77735
-1.72419
-1.69801
-1.75117
-1.72419
-1.67201
-1.64584
-1.69801
-1.67201
-1.62083
-1.59466
-1.64584
-1.62083
-1.57063
-1.54446
-1.59466
-1.57063
-1.52142
-1.49525
-1.54446
-1.52142
-1.4732
-1.44703
-1.49525
-1.4732
-1.42597
-1.39979
-1.44703
-1.42597
-1.37972
-1.35355
-1.39979
-1.37972
-1.33446
-1.30829
-1.35355
-1.33446
-1.29019
-1.26402
-1.30829
-1.29019
-1.24691
-1.22074
-1.26402
-1.24691
-1.20461
-1.17844
-1.22074
-1.20461
-1.16331
-1.13713
-1.17844
-1.16331
-1.12299
-1.09681
-1.13713
-1.12299
-1.08365
-1.05748
-1.09681
-1.08365
-1.04531
-1.01913
-1.05748
-1.04531
-1.00795
-0.981778
-1.01913
-1.00795
-0.971581
-0.945408
-0.981778
-0.971581
-0.936199
-0.910026
-0.945408
-0.936199
-0.901805
-0.875632
-0.910026
-0.901805
-0.868398
-0.842225
-0.875632
-0.868398
-0.835979
-0.809806
-0.842225
-0.835979
-0.804547
-0.778375
-0.809806
-0.804547
-0.774104
-0.747931
-0.778375
-0.774104
-0.744648
-0.718475
-0.747931
-0.744648
-0.716179
-0.690006
-0.718475
-0.716179
-0.688699
-0.662526
-0.690006
-0.688699
-0.662206
-0.636033
-0.662526
-0.662206
-0.6367
-0.610527
-0.636033
-0.6367
-0.612182
-0.586009
-0.610527
-0.612182
-0.588652
-0.562479
-0.586009
-0.588652
-0.56611
-0.539937
-0.562479
-0.56611
-0.544555
-0.518382
-0.539937
-0.544555
-0.523988
-0.497815
-0.518382
-0.523988
-0.504408
-0.478235
-0.497815
-0.504408
-0.485816
-0.459644
-0.478235
-0.485816
-0.468212
-0.442039
-0.459644
-0.468212
-0.451596
-0.425423
-0.442039
-0.451596
-0.435967
-0.409794
-0.425423
-0.435967
-0.421326
-0.395153
-0.409794
-0.421326
-0.407672
-0.381499
-0.395153
-0.407672
-0.395006
-0.368833
-0.381499
-0.395006
-0.383328
-0.357155
-0.368833
-0.383328
-0.372637
-0.346464
-0.357155
-0.372637
-0.362934
-0.336761
-0.346464
-0.362934
-0.354219
-0.328046
-0.336761
-0.354219
-0.346491
-0.320318
-0.328046
-0.346491
-0.339751
-0.313578
-0.320318
-0.339751
-0.333999
-0.307826
-0.313578
-0.333999
-0.329234
-0.303061
-0.307826
-0.329234
-0.325457
-0.299284
-0.303061
-0.325457
-0.322668
-0.296495
-0.299284
-0.322668
-0.320866
-0.294693
-0.296495
-0.320866
-0.320052
-0.293879
-0.294693
-0.320052
-0.320226
-0.294053
-0.293879
-0.320226
-0.321387
-0.295214
-0.294053
-0.321387
-0.323536
-0.297363
-0.295214
-0.323536
-0.326672
-0.300499
-0.297363
-0.326672
-0.330796
-0.304624
-0.300499
-0.330796
-0.335908
-0.309735
-0.304624
-0.335908
-0.342008
-0.315835
-0.309735
-0.342008
-0.349095
-0.322922
-0.315835
-0.349095
-0.35717
-0.330997
-0.322922
-0.35717
-0.366232
-0.340059
-0.330997
-0.366232
-0.376282
-0.350109
-0.340059
-0.376282
-0.38732
-0.361147
-0.350109
-0.38732
-0.399345
-0.373173
-0.361147
-0.399345
-0.412359
-0.386186
-0.373173
-0.412359
-0.426359
-0.400186
-0.386186
-0.426359
-0.441348
-0.415175
-0.400186
-0.441348
-0.457324
-0.431151
-0.415175
-0.457324
-0.474287
-0.448115
-0.431151
-0.474287
-0.492239
-0.466066
-0.448115
-0.492239
-0.511178
-0.485005
-0.466066
-0.511178
-0.531105
-0.504932
-0.485005
-0.531105
-0.552019
-0.525846
-0.504932
-0.552019
-0.573921
-0.547748
-0.525846
-0.573921
-0.59681
-0.570638
-0.547748
-0.59681
-0.620688
-0.594515
-0.570638
-0.620688
-0.645553
-0.61938
-0.594515
-0.645553
-0.671405
-0.645232
-0.61938
-0.671405
-0.698245
-0.672073
-0.645232
-0.698245
-0.726073
-0.699901
-0.672073
-0.726073
-0.754889
-0.728716
-0.699901
-0.754889
-0.784692
-0.758519
-0.728716
-0.784692
-0.815483
-0.78931
-0.758519
-0.815483
-0.847262
-0.821089
-0.78931
-0.847262
-0.880028
-0.853855
-0.821089
-0.880028
-0.913782
-0.887609
-0.853855
-0.913782
-0.948523
-0.92235
-0.887609
-0.948523
-0.984252
-0.958079
-0.92235
-0.984252
-1.02097
-0.994796
-0.958079
-1.02097
-1.05867
-1.0325
-0.994796
-1.05867
-1.09737
-1.07119
-1.0325
-1.09737
-1.13705
-1.11087
-1.07119
-1.13705
-1.17771
-1.15154
-1.11087
-1.17771
-1.21937
-1.19319
-1.15154
-1.21937
-1.26201
-1.23584
-1.19319
-1.26201
-1.30564
-1.27947
-1.23584
-1.30564
-1.35026
-1.32409
-1.27947
-1.35026
-1.39586
-1.36969
-1.32409
-1.39586
-1.44246
-1.41629
-1.36969
-1.44246
-1.49004
-1.46387
-1.41629
-1.49004
-1.53861
-1.51243
-1.46387
-1.53861
-1.58816
-1.56199
-1.51243
-1.58816
-1.63871
-1.61253
-1.56199
-1.63871
-1.69024
-1.66407
-1.61253
-1.69024
-1.74276
-1.71659
-1.66407
-1.74276
-1.79627
-1.77009
-1.71659
-1.79627
-1.85076
-1.82459
-1.77009
-1.85076
-1.90624
-1.88007
-1.82459
-1.90624
-1.96271
-1.93654
-1.88007
-1.96271
-2.02017
-1.994
-1.93654
-2.02017
-2.07861
-2.05244
-1.994
-2.07861
-2.13805
-2.11187
-2.05244
-2.13805
-2.19847
-2.1723
-2.11187
-2.19847
-2.25988
-2.2337
-2.1723
-2.25988
-2.32227
-2.2961
-2.2337
-2.806
-2.73605
-2.71086
-2.78081
-2.73605
-2.66709
-2.6419
-2.71086
-2.66709
-2.59911
-2.57393
-2.6419
-2.59911
-2.53213
-2.50694
-2.57393
-2.53213
-2.46613
-2.44094
-2.50694
-2.46613
-2.40111
-2.37593
-2.44094
-2.40111
-2.33709
-2.31191
-2.37593
-2.33709
-2.27405
-2.24887
-2.31191
-2.27405
-2.21201
-2.18682
-2.24887
-2.21201
-2.15095
-2.12576
-2.18682
-2.15095
-2.09087
-2.06569
-2.12576
-2.09087
-2.03179
-2.0066
-2.06569
-2.03179
-1.97369
-1.9485
-2.0066
-1.97369
-1.91658
-1.89139
-1.9485
-1.91658
-1.86045
-1.83527
-1.89139
-1.86045
-1.80532
-1.78013
-1.83527
-1.80532
-1.75117
-1.72599
-1.78013
-1.75117
-1.69801
-1.67283
-1.72599
-1.69801
-1.64584
-1.62066
-1.67283
-1.64584
-1.59466
-1.56947
-1.62066
-1.59466
-1.54446
-1.51927
-1.56947
-1.54446
-1.49525
-1.47007
-1.51927
-1.49525
-1.44703
-1.42184
-1.47007
-1.44703
-1.39979
-1.37461
-1.42184
-1.39979
-1.35355
-1.32836
-1.37461
-1.35355
-1.30829
-1.28311
-1.32836
-1.30829
-1.26402
-1.23883
-1.28311
-1.26402
-1.22074
-1.19555
-1.23883
-1.22074
-1.17844
-1.15326
-1.19555
-1.17844
-1.13713
-1.11195
-1.15326
-1.13713
-1.09681
-1.07163
-1.11195
-1.09681
-1.05748
-1.03229
-1.07163
-1.05748
-1.01913
-0.99395
-1.03229
-1.01913
-0.981778
-0.956592
-0.99395
-0.981778
-0.945408
-0.920223
-0.956592
-0.945408
-0.910026
-0.884841
-0.920223
-0.910026
-0.875632
-0.850446
-0.884841
-0.875632
-0.842225
-0.81704
-0.850446
-0.842225
-0.809806
-0.784621
-0.81704
-0.809806
-0.778375
-0.753189
-0.784621
-0.778375
-0.747931
-0.722746
-0.753189
-0.747931
-0.718475
-0.69329
-0.722746
-0.718475
-0.690006
-0.664821
-0.69329
-0.690006
-0.662526
-0.637341
-0.664821
-0.662526
-0.636033
-0.610847
-0.637341
-0.636033
-0.610527
-0.585342
-0.610847
-0.610527
-0.586009
-0.560824
-0.585342
-0.586009
-0.562479
-0.537294
-0.560824
-0.562479
-0.539937
-0.514752
-0.537294
-0.539937
-0.518382
-0.493197
-0.514752
-0.518382
-0.497815
-0.47263
-0.493197
-0.497815
-0.478235
-0.45305
-0.47263
-0.478235
-0.459644
-0.434458
-0.45305
-0.459644
-0.442039
-0.416854
-0.434458
-0.442039
-0.425423
-0.400238
-0.416854
-0.425423
-0.409794
-0.384609
-0.400238
-0.409794
-0.395153
-0.369967
-0.384609
-0.395153
-0.381499
-0.356314
-0.369967
-0.381499
-0.368833
-0.343648
-0.356314
-0.368833
-0.357155
-0.33197
-0.343648
-0.357155
-0.346464
-0.321279
-0.33197
-0.346464
-0.336761
-0.311576
-0.321279
-0.336761
-0.328046
-0.302861
-0.311576
-0.328046
-0.320318
-0.295133
-0.302861
-0.320318
-0.313578
-0.288393
-0.295133
-0.313578
-0.307826
-0.282641
-0.288393
-0.307826
-0.303061
-0.277876
-0.282641
-0.303061
-0.299284
-0.274099
-0.277876
-0.299284
-0.296495
-0.27131
-0.274099
-0.296495
-0.294693
-0.269508
-0.27131
-0.294693
-0.293879
-0.268694
-0.269508
-0.293879
-0.294053
-0.268867
-0.268694
-0.294053
-0.295214
-0.270029
-0.268867
-0.295214
-0.297363
-0.272178
-0.270029
-0.297363
-0.300499
-0.275314
-0.272178
-0.300499
-0.304624
-0.279438
-0.275314
-0.304624
-0.309735
-0.28455
-0.279438
-0.309735
-0.315835
-0.29065
-0.28455
-0.315835
-0.322922
-0.297737
-0.29065
-0.322922
-0.330997
-0.305812
-0.297737
-0.330997
-0.340059
-0.314874
-0.305812
-0.340059
-0.350109
-0.324924
-0.314874
-0.350109
-0.361147
-0.335962
-0.324924
-0.361147
-0.373173
-0.347987
-0.335962
-0.373173
-0.386186
-0.361001
-0.347987
-0.386186
-0.400186
-0.375001
-0.361001
-0.400186
-0.415175
-0.38999
-0.375001
-0.415175
-0.431151
-0.405966
-0.38999
-0.431151
-0.448115
-0.422929
-0.405966
-0.448115
-0.466066
-0.440881
-0.422929
-0.466066
-0.485005
-0.45982
-0.440881
-0.485005
-0.504932
-0.479746
-0.45982
-0.504932
-0.525846
-0.500661
-0.479746
-0.525846
-0.547748
-0.522563
-0.500661
-0.547748
-0.570638
-0.545452
-0.522563
-0.570638
-0.594515
-0.56933
-0.545452
-0.594515
-0.61938
-0.594195
-0.56933
-0.61938
-0.645232
-0.620047
-0.594195
-0.645232
-0.672073
-0.646887
-0.620047
-0.672073
-0.699901
-0.674715
-0.646887
-0.699901
-0.728716
-0.703531
-0.674715
-0.728716
-0.758519
-0.733334
-0.703531
-0.758519
-0.78931
-0.764125
-0.733334
-0.78931
-0.821089
-0.795904
-0.764125
-0.821089
-0.853855
-0.82867
-0.795904
-0.853855
-0.887609
-0.862424
-0.82867
-0.887609
-0.92235
-0.897165
-0.862424
-0.92235
-0.958079
-0.932894
-0.897165
-0.958079
-0.994796
-0.969611
-0.932894
-0.994796
-1.0325
-1.00732
-0.969611
-1.0325
-1.07119
-1.04601
-1.00732
-1.07119
-1.11087
-1.08569
-1.04601
-1.11087
-1.15154
-1.12635
-1.08569
-1.15154
-1.19319
-1.16801
-1.12635
-1.19319
-1.23584
-1.21065
-1.16801
-1.23584
-1.27947
-1.25428
-1.21065
-1.27947
-1.32409
-1.2989
-1.25428
-1.32409
-1.36969
-1.34451
-1.2989
-1.36969
-1.41629
-1.3911
-1.34451
-1.41629
-1.46387
-1.43868
-1.3911
-1.46387
-1.51243
-1.48725
-1.43868
-1.51243
-1.56199
-1.53681
-1.48725
-1.56199
-1.61253
-1.58735
-1.53681
-1.61253
-1.66407
-1.63888
-1.58735
-1.66407
-1.71659
-1.6914
-1.63888
-1.71659
-1.77009
-1.74491
-1.6914
-1.77009
-1.82459
-1.7994
-1.74491
-1.82459
-1.88007
-1.85488
-1.7994
-1.88007
-1.93654
-1.91135
-1.85488
-1.93654
-1.994
-1.96881
-1.91135
-1.994
-2.05244
-2.02726
-1.96881
-2.05244
-2.11187
-2.08669
-2.02726
-2.11187
-2.1723
-2.14711
-2.08669
-2.1723
-2.2337
-2.20852
-2.14711
-2.2337
-2.2961
-2.27091
-2.20852
-2.78081
-2.71086
-2.68667
-2.75662
-2.71086
-2.6419
-2.6177
-2.68667
-2.6419
-2.57393
-2.54973
-2.6177
-2.57393
-2.50694
-2.48274
-2.54973
-2.50694
-2.44094
-2.41674
-2.48274
-2.44094
-2.37593
-2.35173
-2.41674
-2.37593
-2.31191
-2.28771
-2.35173
-2.31191
-2.24887
-2.22467
-2.28771
-2.24887
-2.18682
-2.16262
-2.22467
-2.18682
-2.12576
-2.10156
-2.16262
-2.12576
-2.06569
-2.04149
-2.10156
-2.06569
-2.0066
-1.9824
-2.04149
-2.0066
-1.9485
-1.92431
-1.9824
-1.9485
-1.89139
-1.86719
-1.92431
-1.89139
-1.83527
-1.81107
-1.86719
-1.83527
-1.78013
-1.75594
-1.81107
-1.78013
-1.72599
-1.70179
-1.75594
-1.72599
-1.67283
-1.64863
-1.70179
-1.67283
-1.62066
-1.59646
-1.64863
-1.62066
-1.56947
-1.54527
-1.59646
-1.56947
-1.51927
-1.49508
-1.54527
-1.51927
-1.47007
-1.44587
-1.49508
-1.47007
-1.42184
-1.39765
-1.44587
-1.42184
-1.37461
-1.35041
-1.39765
-1.37461
-1.32836
-1.30417
-1.35041
-1.32836
-1.28311
-1.25891
-1.30417
-1.28311
-1.23883
-1.21464
-1.25891
-1.23883
-1.19555
-1.17135
-1.21464
-1.19555
-1.15326
-1.12906
-1.17135
-1.15326
-1.11195
-1.08775
-1.12906
-1.11195
-1.07163
-1.04743
-1.08775
-1.07163
-1.03229
-1.0081
-1.04743
-1.03229
-0.99395
-0.969752
-1.0081
-0.99395
-0.956592
-0.932395
-0.969752
-0.956592
-0.920223
-0.896025
-0.932395
-0.920223
-0.884841
-0.860643
-0.896025
-0.884841
-0.850446
-0.826249
-0.860643
-0.850446
-0.81704
-0.792842
-0.826249
-0.81704
-0.784621
-0.760423
-0.792842
-0.784621
-0.753189
-0.728992
-0.760423
-0.753189
-0.722746
-0.698548
-0.728992
-0.722746
-0.69329
-0.669092
-0.698548
-0.69329
-0.664821
-0.640624
-0.669092
-0.664821
-0.637341
-0.613143
-0.640624
-0.637341
-0.610847
-0.58665
-0.613143
-0.610847
-0.585342
-0.561145
-0.58665
-0.585342
-0.560824
-0.536627
-0.561145
-0.560824
-0.537294
-0.513097
-0.536627
-0.537294
-0.514752
-0.490554
-0.513097
-0.514752
-0.493197
-0.468999
-0.490554
-0.493197
-0.47263
-0.448432
-0.468999
-0.47263
-0.45305
-0.428853
-0.448432
-0.45305
-0.434458
-0.410261
-0.428853
-0.434458
-0.416854
-0.392657
-0.410261
-0.416854
-0.400238
-0.37604
-0.392657
-0.400238
-0.384609
-0.360411
-0.37604
-0.384609
-0.369967
-0.34577
-0.360411
-0.369967
-0.356314
-0.332116
-0.34577
-0.356314
-0.343648
-0.31945
-0.332116
-0.343648
-0.33197
-0.307772
-0.31945
-0.33197
-0.321279
-0.297082
-0.307772
-0.321279
-0.311576
-0.287379
-0.297082
-0.311576
-0.302861
-0.278663
-0.287379
-0.302861
-0.295133
-0.270936
-0.278663
-0.295133
-0.288393
-0.264196
-0.270936
-0.288393
-0.282641
-0.258443
-0.264196
-0.282641
-0.277876
-0.253679
-0.258443
-0.277876
-0.274099
-0.249902
-0.253679
-0.274099
-0.27131
-0.247112
-0.249902
-0.27131
-0.269508
-0.24531
-0.247112
-0.269508
-0.268694
-0.244496
-0.24531
-0.268694
-0.268867
-0.24467
-0.244496
-0.268867
-0.270029
-0.245831
-0.24467
-0.270029
-0.272178
-0.24798
-0.245831
-0.272178
-0.275314
-0.251117
-0.24798
-0.275314
-0.279438
-0.255241
-0.251117
-0.279438
-0.28455
-0.260353
-0.255241
-0.28455
-0.29065
-0.266452
-0.260353
-0.29065
-0.297737
-0.273539
-0.266452
-0.297737
-0.305812
-0.281614
-0.273539
-0.305812
-0.314874
-0.290677
-0.281614
-0.314874
-0.324924
-0.300727
-0.290677
-0.324924
-0.335962
-0.311765
-0.300727
-0.335962
-0.347987
-0.32379
-0.311765
-0.347987
-0.361001
-0.336803
-0.32379
-0.361001
-0.375001
-0.350804
-0.336803
-0.375001
-0.38999
-0.365792
-0.350804
-0.38999
-0.405966
-0.381768
-0.365792
-0.405966
-0.422929
-0.398732
-0.381768
-0.422929
-0.440881
-0.416683
-0.398732
-0.440881
-0.45982
-0.435622
-0.416683
-0.45982
-0.479746
-0.455549
-0.435622
-0.479746
-0.500661
-0.476463
-0.455549
-0.500661
-0.522563
-0.498365
-0.476463
-0.522563
-0.545452
-0.521255
-0.498365
-0.545452
-0.56933
-0.545132
-0.521255
-0.56933
-0.594195
-0.569997
-0.545132
-0.594195
-0.620047
-0.59585
-0.569997
-0.620047
-0.646887
-0.62269
-0.59585
-0.646887
-0.674715
-0.650518
-0.62269
-0.674715
-0.703531
-0.679333
-0.650518
-0.703531
-0.733334
-0.709137
-0.679333
-0.733334
-0.764125
-0.739927
-0.709137
-0.764125
-0.795904
-0.771706
-0.739927
-0.795904
-0.82867
-0.804472
-0.771706
-0.82867
-0.862424
-0.838226
-0.804472
-0.862424
-0.897165
-0.872967
-0.838226
-0.897165
-0.932894
-0.908697
-0.872967
-0.932894
-0.969611
-0.945413
-0.908697
-0.969611
-1.00732
-0.983118
-0.945413
-1.00732
-1.04601
-1.02181
-0.983118
-1.04601
-1.08569
-1.06149
-1.02181
-1.08569
-1.12635
-1.10216
-1.06149
-1.12635
-1.16801
-1.14381
-1.10216
-1.16801
-1.21065
-1.18645
-1.14381
-1.21065
-1.25428
-1.23009
-1.18645
-1.25428
-1.2989
-1.2747
-1.23009
-1.2989
-1.34451
-1.32031
-1.2747
-1.34451
-1.3911
-1.3669
-1.32031
-1.3911
-1.43868
-1.41448
-1.3669
-1.43868
-1.48725
-1.46305
-1.41448
-1.48725
-1.53681
-1.51261
-1.46305
-1.53681
-1.58735
-1.56315
-1.51261
-1.58735
-1.63888
-1.61468
-1.56315
-1.63888
-1.6914
-1.6672
-1.61468
-1.6914
-1.74491
-1.72071
-1.6672
-1.74491
-1.7994
-1.7752
-1.72071
-1.7994
-1.85488
-1.83069
-1.7752
-1.85488
-1.91135
-1.88716
-1.83069
-1.91135
-1.96881
-1.94461
-1.88716
-1.96881
-2.02726
-2.00306
-1.94461
-2.02726
-2.08669
-2.06249
-2.00306
-2.08669
-2.14711
-2.12291
-2.06249
-2.14711
-2.20852
-2.18432
-2.12291
-2.20852
-2.27091
-2.24672
-2.18432
-2.75662
-2.68667
-2.66346
-2.73341
-2.68667
-2.6177
-2.59449
-2.66346
-2.6177
-2.54973
-2.52652
-2.59449
-2.54973
-2.48274
-2.45953
-2.52652
-2.48274
-2.41674
-2.39353
-2.45953
-2.41674
-2.35173
-2.32852
-2.39353
-2.35173
-2.28771
-2.2645
-2.32852
-2.28771
-2.22467
-2.20146
-2.2645
-2.22467
-2.16262
-2.13941
-2.20146
-2.16262
-2.10156
-2.07835
-2.13941
-2.10156
-2.04149
-2.01828
-2.07835
-2.04149
-1.9824
-1.95919
-2.01828
-1.9824
-1.92431
-1.9011
-1.95919
-1.92431
-1.86719
-1.84399
-1.9011
-1.86719
-1.81107
-1.78786
-1.84399
-1.81107
-1.75594
-1.73273
-1.78786
-1.75594
-1.70179
-1.67858
-1.73273
-1.70179
-1.64863
-1.62542
-1.67858
-1.64863
-1.59646
-1.57325
-1.62542
-1.59646
-1.54527
-1.52206
-1.57325
-1.54527
-1.49508
-1.47187
-1.52206
-1.49508
-1.44587
-1.42266
-1.47187
-1.44587
-1.39765
-1.37444
-1.42266
-1.39765
-1.35041
-1.3272
-1.37444
-1.35041
-1.30417
-1.28096
-1.3272
-1.30417
-1.25891
-1.2357
-1.28096
-1.25891
-1.21464
-1.19143
-1.2357
-1.21464
-1.17135
-1.14814
-1.19143
-1.17135
-1.12906
-1.10585
-1.14814
-1.12906
-1.08775
-1.06454
-1.10585
-1.08775
-1.04743
-1.02422
-1.06454
-1.04743
-1.0081
-0.984887
-1.02422
-1.0081
-0.969752
-0.946542
-0.984887
-0.969752
-0.932395
-0.909185
-0.946542
-0.932395
-0.896025
-0.872815
-0.909185
-0.896025
-0.860643
-0.837433
-0.872815
-0.860643
-0.826249
-0.803039
-0.837433
-0.826249
-0.792842
-0.769632
-0.803039
-0.792842
-0.760423
-0.737213
-0.769632
-0.760423
-0.728992
-0.705782
-0.737213
-0.728992
-0.698548
-0.675338
-0.705782
-0.698548
-0.669092
-0.645882
-0.675338
-0.669092
-0.640624
-0.617414
-0.645882
-0.640624
-0.613143
-0.589933
-0.617414
-0.613143
-0.58665
-0.56344
-0.589933
-0.58665
-0.561145
-0.537935
-0.56344
-0.561145
-0.536627
-0.513417
-0.537935
-0.536627
-0.513097
-0.489887
-0.513417
-0.513097
-0.490554
-0.467344
-0.489887
-0.490554
-0.468999
-0.445789
-0.467344
-0.468999
-0.448432
-0.425222
-0.445789
-0.448432
-0.428853
-0.405643
-0.425222
-0.428853
-0.410261
-0.387051
-0.405643
-0.410261
-0.392657
-0.369447
-0.387051
-0.392657
-0.37604
-0.35283
-0.369447
-0.37604
-0.360411
-0.337201
-0.35283
-0.360411
-0.34577
-0.32256
-0.337201
-0.34577
-0.332116
-0.308906
-0.32256
-0.332116
-0.31945
-0.296241
-0.308906
-0.31945
-0.307772
-0.284562
-0.296241
-0.307772
-0.297082
-0.273872
-0.284562
-0.297082
-0.287379
-0.264169
-0.273872
-0.287379
-0.278663
-0.255453
-0.264169
-0.278663
-0.270936
-0.247726
-0.255453
-0.270936
-0.264196
-0.240986
-0.247726
-0.264196
-0.258443
-0.235233
-0.240986
-0.258443
-0.253679
-0.230469
-0.235233
-0.253679
-0.249902
-0.226692
-0.230469
-0.249902
-0.247112
-0.223902
-0.226692
-0.247112
-0.24531
-0.222101
-0.223902
-0.24531
-0.244496
-0.221286
-0.222101
-0.244496
-0.24467
-0.22146
-0.221286
-0.24467
-0.245831
-0.222621
-0.22146
-0.245831
-0.24798
-0.22477
-0.222621
-0.24798
-0.251117
-0.227907
-0.22477
-0.251117
-0.255241
-0.232031
-0.227907
-0.255241
-0.260353
-0.237143
-0.232031
-0.260353
-0.266452
-0.243242
-0.237143
-0.266452
-0.273539
-0.250329
-0.243242
-0.273539
-0.281614
-0.258404
-0.250329
-0.281614
-0.290677
-0.267467
-0.258404
-0.290677
-0.300727
-0.277517
-0.267467
-0.300727
-0.311765
-0.288555
-0.277517
-0.311765
-0.32379
-0.30058
-0.288555
-0.32379
-0.336803
-0.313593
-0.30058
-0.336803
-0.350804
-0.327594
-0.313593
-0.350804
-0.365792
-0.342582
-0.327594
-0.365792
-0.381768
-0.358558
-0.342582
-0.381768
-0.398732
-0.375522
-0.358558
-0.398732
-0.416683
-0.393473
-0.375522
-0.416683
-0.435622
-0.412412
-0.393473
-0.435622
-0.455549
-0.432339
-0.412412
-0.455549
-0.476463
-0.453253
-0.432339
-0.476463
-0.498365
-0.475155
-0.453253
-0.498365
-0.521255
-0.498045
-0.475155
-0.521255
-0.545132
-0.521922
-0.498045
-0.545132
-0.569997
-0.546787
-0.521922
-0.569997
-0.59585
-0.57264
-0.546787
-0.59585
-0.62269
-0.59948
-0.57264
-0.62269
-0.650518
-0.627308
-0.59948
-0.650518
-0.679333
-0.656124
-0.627308
-0.679333
-0.709137
-0.685927
-0.656124
-0.709137
-0.739927
-0.716718
-0.685927
-0.739927
-0.771706
-0.748496
-0.716718
-0.771706
-0.804472
-0.781262
-0.748496
-0.804472
-0.838226
-0.815016
-0.781262
-0.838226
-0.872967
-0.849758
-0.815016
-0.872967
-0.908697
-0.885487
-0.849758
-0.908697
-0.945413
-0.922204
-0.885487
-0.945413
-0.983118
-0.959908
-0.922204
-0.983118
-1.02181
-0.9986
-0.959908
-1.02181
-1.06149
-1.03828
-0.9986
-1.06149
-1.10216
-1.07895
-1.03828
-1.10216
-1.14381
-1.1206
-1.07895
-1.14381
-1.18645
-1.16325
-1.1206
-1.18645
-1.23009
-1.20688
-1.16325
-1.23009
-1.2747
-1.25149
-1.20688
-1.2747
-1.32031
-1.2971
-1.25149
-1.32031
-1.3669
-1.34369
-1.2971
-1.3669
-1.41448
-1.39127
-1.34369
-1.41448
-1.46305
-1.43984