# vtk DataFile Version 1.0
unstructured Grid
ASCII
DATASET UNSTRUCTURED_GRID
POINTS 23424 float 
0 0	 0.0
0.0222222 0	 0.0
0.0222222 0.0222222	 0.0
0 0.0222222	 0.0
0.0222222 0	 0.0
0.0444444 0	 0.0
0.0444444 0.0222222	 0.0
0.0222222 0.0222222	 0.0
0.0444444 0	 0.0
0.0666667 0	 0.0
0.0666667 0.0222222	 0.0
0.0444444 0.0222222	 0.0
0.0666667 0	 0.0
0.0888889 0	 0.0
0.0888889 0.0222222	 0.0
0.0666667 0.0222222	 0.0
0.0888889 0	 0.0
0.111111 0	 0.0
0.111111 0.0222222	 0.0
0.0888889 0.0222222	 0.0
0.111111 0	 0.0
0.133333 0	 0.0
0.133333 0.0222222	 0.0
0.111111 0.0222222	 0.0
0.133333 0	 0.0
0.155556 0	 0.0
0.155556 0.0222222	 0.0
0.133333 0.0222222	 0.0
0.155556 0	 0.0
0.177778 0	 0.0
0.177778 0.0222222	 0.0
0.155556 0.0222222	 0.0
0.177778 0	 0.0
0.2 0	 0.0
0.2 0.0222222	 0.0
0.177778 0.0222222	 0.0
0.2 0	 0.0
0.222222 0	 0.0
0.222222 0.0222222	 0.0
0.2 0.0222222	 0.0
0.222222 0	 0.0
0.244444 0	 0.0
0.244444 0.0222222	 0.0
0.222222 0.0222222	 0.0
0.244444 0	 0.0
0.266667 0	 0.0
0.266667 0.0222222	 0.0
0.244444 0.0222222	 0.0
0.266667 0	 0.0
0.288889 0	 0.0
0.288889 0.0222222	 0.0
0.266667 0.0222222	 0.0
0.288889 0	 0.0
0.311111 0	 0.0
0.311111 0.0222222	 0.0
0.288889 0.0222222	 0.0
0.311111 0	 0.0
0.333333 0	 0.0
0.333333 0.0222222	 0.0
0.311111 0.0222222	 0.0
0.333333 0	 0.0
0.355556 0	 0.0
0.355556 0.0222222	 0.0
0.333333 0.0222222	 0.0
0.355556 0	 0.0
0.377778 0	 0.0
0.377778 0.0222222	 0.0
0.355556 0.0222222	 0.0
0.377778 0	 0.0
0.4 0	 0.0
0.4 0.0222222	 0.0
0.377778 0.0222222	 0.0
0.4 0	 0.0
0.422222 0	 0.0
0.422222 0.0222222	 0.0
0.4 0.0222222	 0.0
0.422222 0	 0.0
0.444444 0	 0.0
0.444444 0.0222222	 0.0
0.422222 0.0222222	 0.0
0.444444 0	 0.0
0.466667 0	 0.0
0.466667 0.0222222	 0.0
0.444444 0.0222222	 0.0
0.466667 0	 0.0
0.488889 0	 0.0
0.488889 0.0222222	 0.0
0.466667 0.0222222	 0.0
0.488889 0	 0.0
0.511111 0	 0.0
0.511111 0.0222222	 0.0
0.488889 0.0222222	 0.0
0.511111 0	 0.0
0.533333 0	 0.0
0.533333 0.0222222	 0.0
0.511111 0.0222222	 0.0
0.533333 0	 0.0
0.555556 0	 0.0
0.555556 0.0222222	 0.0
0.533333 0.0222222	 0.0
0.555556 0	 0.0
0.577778 0	 0.0
0.577778 0.0222222	 0.0
0.555556 0.0222222	 0.0
0.577778 0	 0.0
0.6 0	 0.0
0.6 0.0222222	 0.0
0.577778 0.0222222	 0.0
0.6 0	 0.0
0.622222 0	 0.0
0.622222 0.0222222	 0.0
0.6 0.0222222	 0.0
0.622222 0	 0.0
0.644444 0	 0.0
0.644444 0.0222222	 0.0
0.622222 0.0222222	 0.0
0.644444 0	 0.0
0.666667 0	 0.0
0.666667 0.0222222	 0.0
0.644444 0.0222222	 0.0
0.666667 0	 0.0
0.688889 0	 0.0
0.688889 0.0222222	 0.0
0.666667 0.0222222	 0.0
0.688889 0	 0.0
0.711111 0	 0.0
0.711111 0.0222222	 0.0
0.688889 0.0222222	 0.0
0.711111 0	 0.0
0.733333 0	 0.0
0.733333 0.0222222	 0.0
0.711111 0.0222222	 0.0
0.733333 0	 0.0
0.755556 0	 0.0
0.755556 0.0222222	 0.0
0.733333 0.0222222	 0.0
0.755556 0	 0.0
0.777778 0	 0.0
0.777778 0.0222222	 0.0
0.755556 0.0222222	 0.0
0.777778 0	 0.0
0.8 0	 0.0
0.8 0.0222222	 0.0
0.777778 0.0222222	 0.0
0.8 0	 0.0
0.822222 0	 0.0
0.822222 0.0222222	 0.0
0.8 0.0222222	 0.0
0.822222 0	 0.0
0.844444 0	 0.0
0.844444 0.0222222	 0.0
0.822222 0.0222222	 0.0
0.844444 0	 0.0
0.866667 0	 0.0
0.866667 0.0222222	 0.0
0.844444 0.0222222	 0.0
0.866667 0	 0.0
0.888889 0	 0.0
0.888889 0.0222222	 0.0
0.866667 0.0222222	 0.0
0.888889 0	 0.0
0.911111 0	 0.0
0.911111 0.0222222	 0.0
0.888889 0.0222222	 0.0
0.911111 0	 0.0
0.933333 0	 0.0
0.933333 0.0222222	 0.0
0.911111 0.0222222	 0.0
0.933333 0	 0.0
0.955556 0	 0.0
0.955556 0.0222222	 0.0
0.933333 0.0222222	 0.0
0.955556 0	 0.0
0.977778 0	 0.0
0.977778 0.0222222	 0.0
0.955556 0.0222222	 0.0
0.977778 0	 0.0
1 0	 0.0
1 0.0222222	 0.0
0.977778 0.0222222	 0.0
1 0	 0.0
1.02222 0	 0.0
1.02222 0.0222222	 0.0
1 0.0222222	 0.0
1.02222 0	 0.0
1.04444 0	 0.0
1.04444 0.0222222	 0.0
1.02222 0.0222222	 0.0
1.04444 0	 0.0
1.06667 0	 0.0
1.06667 0.0222222	 0.0
1.04444 0.0222222	 0.0
1.06667 0	 0.0
1.08889 0	 0.0
1.08889 0.0222222	 0.0
1.06667 0.0222222	 0.0
1.08889 0	 0.0
1.11111 0	 0.0
1.11111 0.0222222	 0.0
1.08889 0.0222222	 0.0
1.11111 0	 0.0
1.13333 0	 0.0
1.13333 0.0222222	 0.0
1.11111 0.0222222	 0.0
1.13333 0	 0.0
1.15556 0	 0.0
1.15556 0.0222222	 0.0
1.13333 0.0222222	 0.0
1.15556 0	 0.0
1.17778 0	 0.0
1.17778 0.0222222	 0.0
1.15556 0.0222222	 0.0
1.17778 0	 0.0
1.2 0	 0.0
1.2 0.0222222	 0.0
1.17778 0.0222222	 0.0
1.2 0	 0.0
1.22222 0	 0.0
1.22222 0.0222222	 0.0
1.2 0.0222222	 0.0
1.22222 0	 0.0
1.24444 0	 0.0
1.24444 0.0222222	 0.0
1.22222 0.0222222	 0.0
1.24444 0	 0.0
1.26667 0	 0.0
1.26667 0.0222222	 0.0
1.24444 0.0222222	 0.0
1.26667 0	 0.0
1.28889 0	 0.0
1.28889 0.0222222	 0.0
1.26667 0.0222222	 0.0
1.28889 0	 0.0
1.31111 0	 0.0
1.31111 0.0222222	 0.0
1.28889 0.0222222	 0.0
1.31111 0	 0.0
1.33333 0	 0.0
1.33333 0.0222222	 0.0
1.31111 0.0222222	 0.0
1.33333 0	 0.0
1.35556 0	 0.0
1.35556 0.0222222	 0.0
1.33333 0.0222222	 0.0
1.35556 0	 0.0
1.37778 0	 0.0
1.37778 0.0222222	 0.0
1.35556 0.0222222	 0.0
1.37778 0	 0.0
1.4 0	 0.0
1.4 0.0222222	 0.0
1.37778 0.0222222	 0.0
1.4 0	 0.0
1.42222 0	 0.0
1.42222 0.0222222	 0.0
1.4 0.0222222	 0.0
1.42222 0	 0.0
1.44444 0	 0.0
1.44444 0.0222222	 0.0
1.42222 0.0222222	 0.0
1.44444 0	 0.0
1.46667 0	 0.0
1.46667 0.0222222	 0.0
1.44444 0.0222222	 0.0
1.46667 0	 0.0
1.48889 0	 0.0
1.48889 0.0222222	 0.0
1.46667 0.0222222	 0.0
1.48889 0	 0.0
1.51111 0	 0.0
1.51111 0.0222222	 0.0
1.48889 0.0222222	 0.0
1.51111 0	 0.0
1.53333 0	 0.0
1.53333 0.0222222	 0.0
1.51111 0.0222222	 0.0
1.53333 0	 0.0
1.55556 0	 0.0
1.55556 0.0222222	 0.0
1.53333 0.0222222	 0.0
1.55556 0	 0.0
1.57778 0	 0.0
1.57778 0.0222222	 0.0
1.55556 0.0222222	 0.0
1.57778 0	 0.0
1.6 0	 0.0
1.6 0.0222222	 0.0
1.57778 0.0222222	 0.0
1.6 0	 0.0
1.62222 0	 0.0
1.62222 0.0222222	 0.0
1.6 0.0222222	 0.0
1.62222 0	 0.0
1.64444 0	 0.0
1.64444 0.0222222	 0.0
1.62222 0.0222222	 0.0
1.64444 0	 0.0
1.66667 0	 0.0
1.66667 0.0222222	 0.0
1.64444 0.0222222	 0.0
1.66667 0	 0.0
1.68889 0	 0.0
1.68889 0.0222222	 0.0
1.66667 0.0222222	 0.0
1.68889 0	 0.0
1.71111 0	 0.0
1.71111 0.0222222	 0.0
1.68889 0.0222222	 0.0
1.71111 0	 0.0
1.73333 0	 0.0
1.73333 0.0222222	 0.0
1.71111 0.0222222	 0.0
1.73333 0	 0.0
1.75556 0	 0.0
1.75556 0.0222222	 0.0
1.73333 0.0222222	 0.0
1.75556 0	 0.0
1.77778 0	 0.0
1.77778 0.0222222	 0.0
1.75556 0.0222222	 0.0
1.77778 0	 0.0
1.8 0	 0.0
1.8 0.0222222	 0.0
1.77778 0.0222222	 0.0
1.8 0	 0.0
1.82222 0	 0.0
1.82222 0.0222222	 0.0
1.8 0.0222222	 0.0
1.82222 0	 0.0
1.84444 0	 0.0
1.84444 0.0222222	 0.0
1.82222 0.0222222	 0.0
1.84444 0	 0.0
1.86667 0	 0.0
1.86667 0.0222222	 0.0
1.84444 0.0222222	 0.0
1.86667 0	 0.0
1.88889 0	 0.0
1.88889 0.0222222	 0.0
1.86667 0.0222222	 0.0
1.88889 0	 0.0
1.91111 0	 0.0
1.91111 0.0222222	 0.0
1.88889 0.0222222	 0.0
1.91111 0	 0.0
1.93333 0	 0.0
1.93333 0.0222222	 0.0
1.91111 0.0222222	 0.0
1.93333 0	 0.0
1.95556 0	 0.0
1.95556 0.0222222	 0.0
1.93333 0.0222222	 0.0
1.95556 0	 0.0
1.97778 0	 0.0
1.97778 0.0222222	 0.0
1.95556 0.0222222	 0.0
1.97778 0	 0.0
2 0	 0.0
2 0.0222222	 0.0
1.97778 0.0222222	 0.0
2 0	 0.0
2.02222 0	 0.0
2.02222 0.0222222	 0.0
2 0.0222222	 0.0
2.02222 0	 0.0
2.04444 0	 0.0
2.04444 0.0222222	 0.0
2.02222 0.0222222	 0.0
2.04444 0	 0.0
2.06667 0	 0.0
2.06667 0.0222222	 0.0
2.04444 0.0222222	 0.0
2.06667 0	 0.0
2.08889 0	 0.0
2.08889 0.0222222	 0.0
2.06667 0.0222222	 0.0
2.08889 0	 0.0
2.11111 0	 0.0
2.11111 0.0222222	 0.0
2.08889 0.0222222	 0.0
2.11111 0	 0.0
2.13333 0	 0.0
2.13333 0.0222222	 0.0
2.11111 0.0222222	 0.0
2.13333 0	 0.0
2.15556 0	 0.0
2.15556 0.0222222	 0.0
2.13333 0.0222222	 0.0
2.15556 0	 0.0
2.17778 0	 0.0
2.17778 0.0222222	 0.0
2.15556 0.0222222	 0.0
2.17778 0	 0.0
2.2 0	 0.0
2.2 0.0222222	 0.0
2.17778 0.0222222	 0.0
2.2 0	 0.0
2.22222 0	 0.0
2.22222 0.0222222	 0.0
2.2 0.0222222	 0.0
2.22222 0	 0.0
2.24444 0	 0.0
2.24444 0.0222222	 0.0
2.22222 0.0222222	 0.0
2.24444 0	 0.0
2.26667 0	 0.0
2.26667 0.0222222	 0.0
2.24444 0.0222222	 0.0
2.26667 0	 0.0
2.28889 0	 0.0
2.28889 0.0222222	 0.0
2.26667 0.0222222	 0.0
2.28889 0	 0.0
2.31111 0	 0.0
2.31111 0.0222222	 0.0
2.28889 0.0222222	 0.0
2.31111 0	 0.0
2.33333 0	 0.0
2.33333 0.0222222	 0.0
2.31111 0.0222222	 0.0
2.33333 0	 0.0
2.35556 0	 0.0
2.35556 0.0222222	 0.0
2.33333 0.0222222	 0.0
2.35556 0	 0.0
2.37778 0	 0.0
2.37778 0.0222222	 0.0
2.35556 0.0222222	 0.0
2.37778 0	 0.0
2.4 0	 0.0
2.4 0.0222222	 0.0
2.37778 0.0222222	 0.0
2.4 0	 0.0
2.42222 0	 0.0
2.42222 0.0222222	 0.0
2.4 0.0222222	 0.0
2.42222 0	 0.0
2.44444 0	 0.0
2.44444 0.0222222	 0.0
2.42222 0.0222222	 0.0
2.44444 0	 0.0
2.46667 0	 0.0
2.46667 0.0222222	 0.0
2.44444 0.0222222	 0.0
2.46667 0	 0.0
2.48889 0	 0.0
2.48889 0.0222222	 0.0
2.46667 0.0222222	 0.0
2.48889 0	 0.0
2.51111 0	 0.0
2.51111 0.0222222	 0.0
2.48889 0.0222222	 0.0
2.51111 0	 0.0
2.53333 0	 0.0
2.53333 0.0222222	 0.0
2.51111 0.0222222	 0.0
2.53333 0	 0.0
2.55556 0	 0.0
2.55556 0.0222222	 0.0
2.53333 0.0222222	 0.0
2.55556 0	 0.0
2.57778 0	 0.0
2.57778 0.0222222	 0.0
2.55556 0.0222222	 0.0
2.57778 0	 0.0
2.6 0	 0.0
2.6 0.0222222	 0.0
2.57778 0.0222222	 0.0
2.6 0	 0.0
2.62222 0	 0.0
2.62222 0.0222222	 0.0
2.6 0.0222222	 0.0
2.62222 0	 0.0
2.64444 0	 0.0
2.64444 0.0222222	 0.0
2.62222 0.0222222	 0.0
2.64444 0	 0.0
2.66667 0	 0.0
2.66667 0.0222222	 0.0
2.64444 0.0222222	 0.0
2.66667 0	 0.0
2.68889 0	 0.0
2.68889 0.0222222	 0.0
2.66667 0.0222222	 0.0
2.68889 0	 0.0
2.71111 0	 0.0
2.71111 0.0222222	 0.0
2.68889 0.0222222	 0.0
2.71111 0	 0.0
2.73333 0	 0.0
2.73333 0.0222222	 0.0
2.71111 0.0222222	 0.0
2.73333 0	 0.0
2.75556 0	 0.0
2.75556 0.0222222	 0.0
2.73333 0.0222222	 0.0
2.75556 0	 0.0
2.77778 0	 0.0
2.77778 0.0222222	 0.0
2.75556 0.0222222	 0.0
2.77778 0	 0.0
2.8 0	 0.0
2.8 0.0222222	 0.0
2.77778 0.0222222	 0.0
2.8 0	 0.0
2.82222 0	 0.0
2.82222 0.0222222	 0.0
2.8 0.0222222	 0.0
2.82222 0	 0.0
2.84444 0	 0.0
2.84444 0.0222222	 0.0
2.82222 0.0222222	 0.0
2.84444 0	 0.0
2.86667 0	 0.0
2.86667 0.0222222	 0.0
2.84444 0.0222222	 0.0
2.86667 0	 0.0
2.88889 0	 0.0
2.88889 0.0222222	 0.0
2.86667 0.0222222	 0.0
2.88889 0	 0.0
2.91111 0	 0.0
2.91111 0.0222222	 0.0
2.88889 0.0222222	 0.0
2.91111 0	 0.0
[...]
POINT_DATA 23424
SCALARS levelset_first float
LOOKUP_TABLE default
-3.74372
-3.66197
-3.6358
-3.71754
-3.66197
-3.58122
-3.55505
-3.6358
-3.58122
-3.50145
-3.47528
-3.55505
-3.50145
-3.42267
-3.3965
-3.47528
-3.42267
-3.34488
-3.31871
-3.3965
-3.34488
-3.26807
-3.2419
-3.31871
-3.26807
-3.19226
-3.16608
-3.2419
-3.19226
-3.11743
-3.09125
-3.16608
-3.11743
-3.04359
-3.01741
-3.09125
-3.04359
-2.97073
-2.94456
-3.01741
-2.97073
-2.89886
-2.87269
-2.94456
-2.89886
-2.82799
-2.80181
-2.87269
-2.82799
-2.75809
-2.73192
-2.80181
-2.75809
-2.68919
-2.66302
-2.73192
-2.68919
-2.62128
-2.5951
-2.66302
-2.62128
-2.55435
-2.52817
-2.5951
-2.55435
-2.48841
-2.46223
-2.52817
-2.48841
-2.42345
-2.39728
-2.46223
-2.42345
-2.35949
-2.33332
-2.39728
-2.35949
-2.29651
-2.27034
-2.33332
-2.29651
-2.23452
-2.20835
-2.27034
-2.23452
-2.17352
-2.14735
-2.20835
-2.17352
-2.1135
-2.08733
-2.14735
-2.1135
-2.05448
-2.0283
-2.08733
-2.05448
-1.99644
-1.97026
-2.0283
-1.99644
-1.93939
-1.91321
-1.97026
-1.93939
-1.88332
-1.85715
-1.91321
-1.88332
-1.82825
-1.80207
-1.85715
-1.82825
-1.77416
-1.74798
-1.80207
-1.77416
-1.72106
-1.69488
-1.74798
-1.72106
-1.66894
-1.64277
-1.69488
-1.66894
-1.61782
-1.59164
-1.64277
-1.61782
-1.56768
-1.54151
-1.59164
-1.56768
-1.51853
-1.49236
-1.54151
-1.51853
-1.47037
-1.44419
-1.49236
-1.47037
-1.42319
-1.39702
-1.44419
-1.42319
-1.377
-1.35083
-1.39702
-1.377
-1.3318
-1.30563
-1.35083
-1.3318
-1.28759
-1.26142
-1.30563
-1.28759
-1.24437
-1.21819
-1.26142
-1.24437
-1.20213
-1.17596
-1.21819
-1.20213
-1.16088
-1.13471
-1.17596
-1.16088
-1.12062
-1.09445
-1.13471
-1.12062
-1.08135
-1.05517
-1.09445
-1.08135
-1.04306
-1.01689
-1.05517
-1.04306
-1.00576
-0.979588
-1.01689
-1.00576
-0.96945
-0.943277
-0.979588
-0.96945
-0.934126
-0.907953
-0.943277
-0.934126
-0.899791
-0.873618
-0.907953
-0.899791
-0.866443
-0.84027
-0.873618
-0.866443
-0.834082
-0.80791
-0.84027
-0.834082
-0.80271
-0.776537
-0.80791
-0.80271
-0.772325
-0.746152
-0.776537
-0.772325
-0.742928
-0.716755
-0.746152
-0.742928
-0.714518
-0.688345
-0.716755
-0.714518
-0.687096
-0.660923
-0.688345
-0.687096
-0.660661
-0.634489
-0.660923
-0.660661
-0.635215
-0.609042
-0.634489
-0.635215
-0.610756
-0.584583
-0.609042
-0.610756
-0.587284
-0.561111
-0.584583
-0.587284
-0.564801
-0.538628
-0.561111
-0.564801
-0.543304
-0.517132
-0.538628
-0.543304
-0.522796
-0.496623
-0.517132
-0.522796
-0.503275
-0.477102
-0.496623
-0.503275
-0.484742
-0.458569
-0.477102
-0.484742
-0.467197
-0.441024
-0.458569
-0.467197
-0.450639
-0.424466
-0.441024
-0.450639
-0.435069
-0.408896
-0.424466
-0.435069
-0.420486
-0.394313
-0.408896
-0.420486
-0.406891
-0.380718
-0.394313
-0.406891
-0.394284
-0.368111
-0.380718
-0.394284
-0.382665
-0.356492
-0.368111
-0.382665
-0.372033
-0.34586
-0.356492
-0.372033
-0.362388
-0.336216
-0.34586
-0.362388
-0.353732
-0.327559
-0.336216
-0.353732
-0.346063
-0.31989
-0.327559
-0.346063
-0.339382
-0.313209
-0.31989
-0.339382
-0.333688
-0.307515
-0.313209
-0.333688
-0.328982
-0.302809
-0.307515
-0.328982
-0.325264
-0.299091
-0.302809
-0.325264
-0.322533
-0.29636
-0.299091
-0.322533
-0.32079
-0.294617
-0.29636
-0.32079
-0.320035
-0.293862
-0.294617
-0.320035
-0.320267
-0.294094
-0.293862
-0.320267
-0.321487
-0.295314
-0.294094
-0.321487
-0.323694
-0.297522
-0.295314
-0.323694
-0.32689
-0.300717
-0.297522
-0.32689
-0.331073
-0.3049
-0.300717
-0.331073
-0.336243
-0.31007
-0.3049
-0.336243
-0.342401
-0.316229
-0.31007
-0.342401
-0.349547
-0.323375
-0.316229
-0.349547
-0.357681
-0.331508
-0.323375
-0.357681
-0.366802
-0.340629
-0.331508
-0.366802
-0.376911
-0.350738
-0.340629
-0.376911
-0.388007
-0.361835
-0.350738
-0.388007
-0.400092
-0.373919
-0.361835
-0.400092
-0.413163
-0.386991
-0.373919
-0.413163
-0.427223
-0.40105
-0.386991
-0.427223
-0.44227
-0.416097
-0.40105
-0.44227
-0.458305
-0.432132
-0.416097
-0.458305
-0.475327
-0.449154
-0.432132
-0.475327
-0.493337
-0.467164
-0.449154
-0.493337
-0.512335
-0.486162
-0.467164
-0.512335
-0.53232
-0.506148
-0.486162
-0.53232
-0.553293
-0.527121
-0.506148
-0.553293
-0.575254
-0.549081
-0.527121
-0.575254
-0.598202
-0.57203
-0.549081
-0.598202
-0.622138
-0.595966
-0.57203
-0.622138
-0.647062
-0.620889
-0.595966
-0.647062
-0.672973
-0.646801
-0.620889
-0.672973
-0.699872
-0.6737
-0.646801
-0.699872
-0.727759
-0.701586
-0.6737
-0.727759
-0.756633
-0.73046
-0.701586
-0.756633
-0.786495
-0.760322
-0.73046
-0.786495
-0.817345
-0.791172
-0.760322
-0.817345
-0.849182
-0.823009
-0.791172
-0.849182
-0.882007
-0.855834
-0.823009
-0.882007
-0.915819
-0.889647
-0.855834
-0.915819
-0.95062
-0.924447
-0.889647
-0.95062
-0.986408
-0.960235
-0.924447
-0.986408
-1.02318
-0.99701
-0.960235
-1.02318
-1.06095
-1.03477
-0.99701
-1.06095
-1.0997
-1.07352
-1.03477
-1.0997
-1.13944
-1.11326
-1.07352
-1.13944
-1.18016
-1.15399
-1.11326
-1.18016
-1.22188
-1.1957
-1.15399
-1.22188
-1.26458
-1.2384
-1.1957
-1.26458
-1.30827
-1.28209
-1.2384
-1.30827
-1.35294
-1.32677
-1.28209
-1.35294
-1.39861
-1.37243
-1.32677
-1.39861
-1.44526
-1.41909
-1.37243
-1.44526
-1.4929
-1.46673
-1.41909
-1.4929
-1.54153
-1.51535
-1.46673
-1.54153
-1.59114
-1.56497
-1.51535
-1.59114
-1.64174
-1.61557
-1.56497
-3.71754
-3.6358
-3.61062
-3.69236
-3.6358
-3.55505
-3.52986
-3.61062
-3.55505
-3.47528
-3.45009
-3.52986
-3.47528
-3.3965
-3.37131
-3.45009
-3.3965
-3.31871
-3.29352
-3.37131
-3.31871
-3.2419
-3.21672
-3.29352
-3.2419
-3.16608
-3.1409
-3.21672
-3.16608
-3.09125
-3.06607
-3.1409
-3.09125
-3.01741
-2.99223
-3.06607
-3.01741
-2.94456
-2.91937
-2.99223
-2.94456
-2.87269
-2.84751
-2.91937
-2.87269
-2.80181
-2.77663
-2.84751
-2.80181
-2.73192
-2.70674
-2.77663
-2.73192
-2.66302
-2.63783
-2.70674
-2.66302
-2.5951
-2.56992
-2.63783
-2.5951
-2.52817
-2.50299
-2.56992
-2.52817
-2.46223
-2.43705
-2.50299
-2.46223
-2.39728
-2.3721
-2.43705
-2.39728
-2.33332
-2.30813
-2.3721
-2.33332
-2.27034
-2.24515
-2.30813
-2.27034
-2.20835
-2.18316
-2.24515
-2.20835
-2.14735
-2.12216
-2.18316
-2.14735
-2.08733
-2.06215
-2.12216
-2.08733
-2.0283
-2.00312
-2.06215
-2.0283
-1.97026
-1.94508
-2.00312
-1.97026
-1.91321
-1.88803
-1.94508
-1.91321
-1.85715
-1.83196
-1.88803
-1.85715
-1.80207
-1.77689
-1.83196
-1.80207
-1.74798
-1.7228
-1.77689
-1.74798
-1.69488
-1.6697
-1.7228
-1.69488
-1.64277
-1.61758
-1.6697
-1.64277
-1.59164
-1.56646
-1.61758
-1.59164
-1.54151
-1.51632
-1.56646
-1.54151
-1.49236
-1.46717
-1.51632
-1.49236
-1.44419
-1.41901
-1.46717
-1.44419
-1.39702
-1.37183
-1.41901
-1.39702
-1.35083
-1.32565
-1.37183
-1.35083
-1.30563
-1.28045
-1.32565
-1.30563
-1.26142
-1.23623
-1.28045
-1.26142
-1.21819
-1.19301
-1.23623
-1.21819
-1.17596
-1.15077
-1.19301
-1.17596
-1.13471
-1.10952
-1.15077
-1.13471
-1.09445
-1.06926
-1.10952
-1.09445
-1.05517
-1.02999
-1.06926
-1.05517
-1.01689
-0.991701
-1.02999
-1.01689
-0.979588
-0.954402
-0.991701
-0.979588
-0.943277
-0.918092
-0.954402
-0.943277
-0.907953
-0.882768
-0.918092
-0.907953
-0.873618
-0.848433
-0.882768
-0.873618
-0.84027
-0.815085
-0.848433
-0.84027
-0.80791
-0.782724
-0.815085
-0.80791
-0.776537
-0.751352
-0.782724
-0.776537
-0.746152
-0.720967
-0.751352
-0.746152
-0.716755
-0.69157
-0.720967
-0.716755
-0.688345
-0.66316
-0.69157
-0.688345
-0.660923
-0.635738
-0.66316
-0.660923
-0.634489
-0.609303
-0.635738
-0.634489
-0.609042
-0.583857
-0.609303
-0.609042
-0.584583
-0.559398
-0.583857
-0.584583
-0.561111
-0.535926
-0.559398
-0.561111
-0.538628
-0.513443
-0.535926
-0.538628
-0.517132
-0.491946
-0.513443
-0.517132
-0.496623
-0.471438
-0.491946
-0.496623
-0.477102
-0.451917
-0.471438
-0.477102
-0.458569
-0.433384
-0.451917
-0.458569
-0.441024
-0.415839
-0.433384
-0.441024
-0.424466
-0.399281
-0.415839
-0.424466
-0.408896
-0.383711
-0.399281
-0.408896
-0.394313
-0.369128
-0.383711
-0.394313
-0.380718
-0.355533
-0.369128
-0.380718
-0.368111
-0.342926
-0.355533
-0.368111
-0.356492
-0.331306
-0.342926
-0.356492
-0.34586
-0.320675
-0.331306
-0.34586
-0.336216
-0.31103
-0.320675
-0.336216
-0.327559
-0.302374
-0.31103
-0.327559
-0.31989
-0.294705
-0.302374
-0.31989
-0.313209
-0.288024
-0.294705
-0.313209
-0.307515
-0.28233
-0.288024
-0.307515
-0.302809
-0.277624
-0.28233
-0.302809
-0.299091
-0.273906
-0.277624
-0.299091
-0.29636
-0.271175
-0.273906
-0.29636
-0.294617
-0.269432
-0.271175
-0.294617
-0.293862
-0.268677
-0.269432
-0.293862
-0.294094
-0.268909
-0.268677
-0.294094
-0.295314
-0.270129
-0.268909
-0.295314
-0.297522
-0.272336
-0.270129
-0.297522
-0.300717
-0.275532
-0.272336
-0.300717
-0.3049
-0.279715
-0.275532
-0.3049
-0.31007
-0.284885
-0.279715
-0.31007
-0.316229
-0.291043
-0.284885
-0.316229
-0.323375
-0.298189
-0.291043
-0.323375
-0.331508
-0.306323
-0.298189
-0.331508
-0.340629
-0.315444
-0.306323
-0.340629
-0.350738
-0.325553
-0.315444
-0.350738
-0.361835
-0.336649
-0.325553
-0.361835
-0.373919
-0.348734
-0.336649
-0.373919
-0.386991
-0.361805
-0.348734
-0.386991
-0.40105
-0.375865
-0.361805
-0.40105
-0.416097
-0.390912
-0.375865
-0.416097
-0.432132
-0.406947
-0.390912
-0.432132
-0.449154
-0.423969
-0.406947
-0.449154
-0.467164
-0.441979
-0.423969
-0.467164
-0.486162
-0.460977
-0.441979
-0.486162
-0.506148
-0.480962
-0.460977
-0.506148
-0.527121
-0.501935
-0.480962
-0.527121
-0.549081
-0.523896
-0.501935
-0.549081
-0.57203
-0.546844
-0.523896
-0.57203
-0.595966
-0.57078
-0.546844
-0.595966
-0.620889
-0.595704
-0.57078
-0.620889
-0.646801
-0.621615
-0.595704
-0.646801
-0.6737
-0.648514
-0.621615
-0.6737
-0.701586
-0.676401
-0.648514
-0.701586
-0.73046
-0.705275
-0.676401
-0.73046
-0.760322
-0.735137
-0.705275
-0.760322
-0.791172
-0.765987
-0.735137
-0.791172
-0.823009
-0.797824
-0.765987
-0.823009
-0.855834
-0.830649
-0.797824
-0.855834
-0.889647
-0.864461
-0.830649
-0.889647
-0.924447
-0.899262
-0.864461
-0.924447
-0.960235
-0.935049
-0.899262
-0.960235
-0.99701
-0.971825
-0.935049
-0.99701
-1.03477
-1.00959
-0.971825
-1.03477
-1.07352
-1.04834
-1.00959
-1.07352
-1.11326
-1.08808
-1.04834
-1.11326
-1.15399
-1.1288
-1.08808
-1.15399
-1.1957
-1.17052
-1.1288
-1.1957
-1.2384
-1.21322
-1.17052
-1.2384
-1.28209
-1.25691
-1.21322
-1.28209
-1.32677
-1.30158
-1.25691
-1.32677
-1.37243
-1.34725
-1.30158
-1.37243
-1.41909
-1.3939
-1.34725
-1.41909
-1.46673
-1.44154
-1.3939
-1.46673
-1.51535
-1.49017
-1.44154
-1.51535
-1.56497
-1.53978
-1.49017
-1.56497
-1.61557
-1.59039
-1.53978
-3.69236
-3.61062
-3.58642
-3.66816
-3.61062
-3.52986
-3.50566
-3.58642
-3.52986
-3.45009
-3.4259
-3.50566
-3.45009
-3.37131
-3.34711
-3.4259
-3.37131
-3.29352
-3.26932
-3.34711
-3.29352
-3.21672
-3.19252
-3.26932
-3.21672
-3.1409
-3.1167
-3.19252
-3.1409
-3.06607
-3.04187
-3.1167
-3.06607
-2.99223
-2.96803
-3.04187
-2.99223
-2.91937
-2.89518
-2.96803
-2.91937
-2.84751
-2.82331
-2.89518
-2.84751
-2.77663
-2.75243
-2.82331
-2.77663
-2.70674
-2.68254
-2.75243
-2.70674
-2.63783
-2.61364
-2.68254
-2.63783
-2.56992
-2.54572
-2.61364
-2.56992
-2.50299
-2.47879
-2.54572
-2.50299
-2.43705
-2.41285
-2.47879
-2.43705
-2.3721
-2.3479
-2.41285
-2.3721
-2.30813
-2.28393
-2.3479
-2.30813
-2.24515
-2.22096
-2.28393
-2.24515
-2.18316
-2.15897
-2.22096
-2.18316
-2.12216
-2.09796
-2.15897
-2.12216
-2.06215
-2.03795
-2.09796
-2.06215
-2.00312
-1.97892
-2.03795
-2.00312
-1.94508
-1.92088
-1.97892
-1.94508
-1.88803
-1.86383
-1.92088
-1.88803
-1.83196
-1.80777
-1.86383
-1.83196
-1.77689
-1.75269
-1.80777
-1.77689
-1.7228
-1.6986
-1.75269
-1.7228
-1.6697
-1.6455
-1.6986
-1.6697
-1.61758
-1.59339
-1.6455
-1.61758
-1.56646
-1.54226
-1.59339
-1.56646
-1.51632
-1.49212
-1.54226
-1.51632
-1.46717
-1.44297
-1.49212
-1.46717
-1.41901
-1.39481
-1.44297
-1.41901
-1.37183
-1.34764
-1.39481
-1.37183
-1.32565
-1.30145
-1.34764
-1.32565
-1.28045
-1.25625
-1.30145
-1.28045
-1.23623
-1.21204
-1.25625
-1.23623
-1.19301
-1.16881
-1.21204
-1.19301
-1.15077
-1.12657
-1.16881
-1.15077
-1.10952
-1.08533
-1.12657
-1.10952
-1.06926
-1.04506
-1.08533
-1.06926
-1.02999
-1.00579
-1.04506
-1.02999
-0.991701
-0.967504
-1.00579
-0.991701
-0.954402
-0.930205
-0.967504
-0.954402
-0.918092
-0.893894
-0.930205
-0.918092
-0.882768
-0.858571
-0.893894
-0.882768
-0.848433
-0.824235
-0.858571
-0.848433
-0.815085
-0.790887
-0.824235
-0.815085
-0.782724
-0.758527
-0.790887
-0.782724
-0.751352
-0.727154
-0.758527
-0.751352
-0.720967
-0.696769
-0.727154
-0.720967
-0.69157
-0.667372
-0.696769
-0.69157
-0.66316
-0.638962
-0.667372
-0.66316
-0.635738
-0.61154
-0.638962
-0.635738
-0.609303
-0.585106
-0.61154
-0.609303
-0.583857
-0.559659
-0.585106
-0.583857
-0.559398
-0.5352
-0.559659
-0.559398
-0.535926
-0.511729
-0.5352
-0.535926
-0.513443
-0.489245
-0.511729
-0.513443
-0.491946
-0.467749
-0.489245
-0.491946
-0.471438
-0.44724
-0.467749
-0.471438
-0.451917
-0.42772
-0.44724
-0.451917
-0.433384
-0.409187
-0.42772
-0.433384
-0.415839
-0.391641
-0.409187
-0.415839
-0.399281
-0.375083
-0.391641
-0.399281
-0.383711
-0.359513
-0.375083
-0.383711
-0.369128
-0.344931
-0.359513
-0.369128
-0.355533
-0.331336
-0.344931
-0.355533
-0.342926
-0.318729
-0.331336
-0.342926
-0.331306
-0.307109
-0.318729
-0.331306
-0.320675
-0.296477
-0.307109
-0.320675
-0.31103
-0.286833
-0.296477
-0.31103
-0.302374
-0.278176
-0.286833
-0.302374
-0.294705
-0.270507
-0.278176
-0.294705
-0.288024
-0.263826
-0.270507
-0.288024
-0.28233
-0.258132
-0.263826
-0.28233
-0.277624
-0.253426
-0.258132
-0.277624
-0.273906
-0.249708
-0.253426
-0.273906
-0.271175
-0.246977
-0.249708
-0.271175
-0.269432
-0.245234
-0.246977
-0.269432
-0.268677
-0.244479
-0.245234
-0.268677
-0.268909
-0.244711
-0.244479
-0.268909
-0.270129
-0.245931
-0.244711
-0.270129
-0.272336
-0.248139
-0.245931
-0.272336
-0.275532
-0.251334
-0.248139
-0.275532
-0.279715
-0.255517
-0.251334
-0.279715
-0.284885
-0.260688
-0.255517
-0.284885
-0.291043
-0.266846
-0.260688
-0.291043
-0.298189
-0.273992
-0.266846
-0.298189
-0.306323
-0.282125
-0.273992
-0.306323
-0.315444
-0.291247
-0.282125
-0.315444
-0.325553
-0.301355
-0.291247
-0.325553
-0.336649
-0.312452
-0.301355
-0.336649
-0.348734
-0.324536
-0.312452
-0.348734
-0.361805
-0.337608
-0.324536
-0.361805
-0.375865
-0.351667
-0.337608
-0.375865
-0.390912
-0.366714
-0.351667
-0.390912
-0.406947
-0.382749
-0.366714
-0.406947
-0.423969
-0.399772
-0.382749
-0.423969
-0.441979
-0.417782
-0.399772
-0.441979
-0.460977
-0.436779
-0.417782
-0.460977
-0.480962
-0.456765
-0.436779
-0.480962
-0.501935
-0.477738
-0.456765
-0.501935
-0.523896
-0.499699
-0.477738
-0.523896
-0.546844
-0.522647
-0.499699
-0.546844
-0.57078
-0.546583
-0.522647
-0.57078
-0.595704
-0.571507
-0.546583
-0.595704
-0.621615
-0.597418
-0.571507
-0.621615
-0.648514
-0.624317
-0.597418
-0.648514
-0.676401
-0.652203
-0.624317
-0.676401
-0.705275
-0.681078
-0.652203
-0.705275
-0.735137
-0.71094
-0.681078
-0.735137
-0.765987
-0.741789
-0.71094
-0.765987
-0.797824
-0.773626
-0.741789
-0.797824
-0.830649
-0.806451
-0.773626
-0.830649
-0.864461
-0.840264
-0.806451
-0.864461
-0.899262
-0.875064
-0.840264
-0.899262
-0.935049
-0.910852
-0.875064
-0.935049
-0.971825
-0.947627
-0.910852
-0.971825
-1.00959
-0.985391
-0.947627
-1.00959
-1.04834
-1.02414
-0.985391
-1.04834
-1.08808
-1.06388
-1.02414
-1.08808
-1.1288
-1.10461
-1.06388
-1.1288
-1.17052
-1.14632
-1.10461
-1.17052
-1.21322
-1.18902
-1.14632
-1.21322
-1.25691
-1.23271
-1.18902
-1.25691
-1.30158
-1.27739
-1.23271
-1.30158
-1.34725
-1.32305
-1.27739
-1.34725
-1.3939
-1.3697
-1.32305
-1.3939
-1.44154
-1.41734
-1.3697
-1.44154
-1.49017
-1.46597
-1.41734
-1.49017
-1.53978
-1.51559
-1.46597
-1.53978
-1.59039
-1.56619
-1.51559
-3.66816
-3.58642
-3.56321
-3.64495
-3.58642
-3.50566
-3.48245
-3.56321
-3.50566
-3.4259
-3.40269
-3.48245
-3.4259
-3.34711
-3.32391
-3.40269
-3.34711
-3.26932
-3.24611
-3.32391
-3.26932
-3.19252
-3.16931
-3.24611
-3.19252
-3.1167
-3.09349
-3.16931
-3.1167
-3.04187
-3.01866
-3.09349
-3.04187
-2.96803
-2.94482
-3.01866
-2.96803
-2.89518
-2.87197
-2.94482
-2.89518
-2.82331
-2.8001
-2.87197
-2.82331
-2.75243
-2.72922
-2.8001
-2.75243
-2.68254
-2.65933
-2.72922
-2.68254
-2.61364
-2.59043
-2.65933
-2.61364
-2.54572
-2.52251
-2.59043
-2.54572
-2.47879
-2.45558
-2.52251
-2.47879
-2.41285
-2.38964
-2.45558
-2.41285
-2.3479
-2.32469
-2.38964
-2.3479
-2.28393
-2.26072
-2.32469
-2.28393
-2.22096
-2.19775
-2.26072
-2.22096
-2.15897
-2.13576
-2.19775
-2.15897
-2.09796
-2.07475
-2.13576
-2.09796
-2.03795
-2.01474
-2.07475
-2.03795
-1.97892
-1.95571
-2.01474
-1.97892
-1.92088
-1.89767
-1.95571
-1.92088
-1.86383
-1.84062
-1.89767
-1.86383
-1.80777
-1.78456
-1.84062
-1.80777
-1.75269
-1.72948
-1.78456
-1.75269
-1.6986
-1.67539
-1.72948
-1.6986
-1.6455
-1.62229
-1.67539
-1.6455
-1.59339
-1.57018
-1.62229
-1.59339
-1.54226
-1.51905
-1.57018
-1.54226
-1.49212
-1.46891
-1.51905
-1.49212
-1.44297
-1.41976
-1.46891
-1.44297
-1.39481
-1.3716
-1.41976
-1.39481
-1.34764
-1.32443
-1.3716
-1.34764
-1.30145
-1.27824
-1.32443
-1.30145
-1.25625
-1.23304
-1.27824
-1.25625
-1.21204
-1.18883
-1.23304
-1.21204
-1.16881
-1.1456
-1.18883
-1.16881
-1.12657
-1.10336
-1.1456
-1.12657
-1.08533
-1.06212
-1.10336
-1.08533
-1.04506
-1.02185
-1.06212
-1.04506
-1.00579
-0.98258
-1.02185
-1.00579
-0.967504
-0.944294
-0.98258
-0.967504
-0.930205
-0.906995
-0.944294
-0.930205
-0.893894
-0.870684
-0.906995
-0.893894
-0.858571
-0.835361
-0.870684
-0.858571
-0.824235
-0.801025
-0.835361
-0.824235
-0.790887
-0.767677
-0.801025
-0.790887
-0.758527
-0.735317
-0.767677
-0.758527
-0.727154
-0.703944
-0.735317
-0.727154
-0.696769
-0.673559
-0.703944
-0.696769
-0.667372
-0.644162
-0.673559
-0.667372
-0.638962
-0.615752
-0.644162
-0.638962
-0.61154
-0.58833
-0.615752
-0.61154
-0.585106
-0.561896
-0.58833
-0.585106
-0.559659
-0.536449
-0.561896
-0.559659
-0.5352
-0.51199
-0.536449
-0.5352
-0.511729
-0.488519
-0.51199
-0.511729
-0.489245
-0.466035
-0.488519
-0.489245
-0.467749
-0.444539
-0.466035
-0.467749
-0.44724
-0.424031
-0.444539
-0.44724
-0.42772
-0.40451
-0.424031
-0.42772
-0.409187
-0.385977
-0.40451
-0.409187
-0.391641
-0.368431
-0.385977
-0.391641
-0.375083
-0.351873
-0.368431
-0.375083
-0.359513
-0.336303
-0.351873
-0.359513
-0.344931
-0.321721
-0.336303
-0.344931
-0.331336
-0.308126
-0.321721
-0.331336
-0.318729
-0.295519
-0.308126
-0.318729
-0.307109
-0.283899
-0.295519
-0.307109
-0.296477
-0.273267
-0.283899
-0.296477
-0.286833
-0.263623
-0.273267
-0.286833
-0.278176
-0.254966
-0.263623
-0.278176
-0.270507
-0.247297
-0.254966
-0.270507
-0.263826
-0.240616
-0.247297
-0.263826
-0.258132
-0.234923
-0.240616
-0.258132
-0.253426
-0.230217
-0.234923
-0.253426
-0.249708
-0.226498
-0.230217
-0.249708
-0.246977
-0.223768
-0.226498
-0.246977
-0.245234
-0.222025
-0.223768
-0.245234
-0.244479
-0.221269
-0.222025
-0.244479
-0.244711
-0.221501
-0.221269
-0.244711
-0.245931
-0.222721
-0.221501
-0.245931
-0.248139
-0.224929
-0.222721
-0.248139
-0.251334
-0.228124
-0.224929
-0.251334
-0.255517
-0.232307
-0.228124
-0.255517
-0.260688
-0.237478
-0.232307
-0.260688
-0.266846
-0.243636
-0.237478
-0.266846
-0.273992
-0.250782
-0.243636
-0.273992
-0.282125
-0.258915
-0.250782
-0.282125
-0.291247
-0.268037
-0.258915
-0.291247
-0.301355
-0.278145
-0.268037
-0.301355
-0.312452
-0.289242
-0.278145
-0.312452
-0.324536
-0.301326
-0.289242
-0.324536
-0.337608
-0.314398
-0.301326
-0.337608
-0.351667
-0.328457
-0.314398
-0.351667
-0.366714
-0.343505
-0.328457
-0.366714
-0.382749
-0.359539
-0.343505
-0.382749
-0.399772
-0.376562
-0.359539
-0.399772
-0.417782
-0.394572
-0.376562
-0.417782
-0.436779
-0.41357
-0.394572
-0.436779
-0.456765
-0.433555
-0.41357
-0.456765
-0.477738
-0.454528
-0.433555
-0.477738
-0.499699
-0.476489
-0.454528
-0.499699
-0.522647
-0.499437
-0.476489
-0.522647
-0.546583
-0.523373
-0.499437
-0.546583
-0.571507
-0.548297
-0.523373
-0.571507
-0.597418
-0.574208
-0.548297
-0.597418
-0.624317
-0.601107
-0.574208
-0.624317
-0.652203
-0.628994
-0.601107
-0.652203
-0.681078
-0.657868
-0.628994
-0.681078
-0.71094
-0.68773
-0.657868
-0.71094
-0.741789
-0.718579
-0.68773
-0.741789
-0.773626
-0.750417
-0.718579
-0.773626
-0.806451
-0.783241
-0.750417
-0.806451
-0.840264
-0.817054
-0.783241
-0.840264
-0.875064
-0.851854
-0.817054
-0.875064
-0.910852
-0.887642
-0.851854
-0.910852
-0.947627
-0.924418