# vtk DataFile Version 1.0
unstructured Grid
ASCII
DATASET UNSTRUCTURED_GRID
POINTS 23440 float 
0 0	 0.0
0.0222222 0	 0.0
0.0222222 0.0222222	 0.0
0 0.0222222	 0.0
0.0222222 0	 0.0
0.0444444 0	 0.0
0.0444444 0.0222222	 0.0
0.0222222 0.0222222	 0.0
0.0444444 0	 0.0
0.0666667 0	 0.0
0.0666667 0.0222222	 0.0
0.0444444 0.0222222	 0.0
0.0666667 0	 0.0
0.0888889 0	 0.0
0.0888889 0.0222222	 0.0
0.0666667 0.0222222	 0.0
0.0888889 0	 0.0
0.111111 0	 0.0
0.111111 0.0222222	 0.0
0.0888889 0.0222222	 0.0
0.111111 0	 0.0
0.133333 0	 0.0
0.133333 0.0222222	 0.0
0.111111 0.0222222	 0.0
0.133333 0	 0.0
0.155556 0	 0.0
0.155556 0.0222222	 0.0
0.133333 0.0222222	 0.0
0.155556 0	 0.0
0.177778 0	 0.0
0.177778 0.0222222	 0.0
0.155556 0.0222222	 0.0
0.177778 0	 0.0
0.2 0	 0.0
0.2 0.0222222	 0.0
0.177778 0.0222222	 0.0
0.2 0	 0.0
0.222222 0	 0.0
0.222222 0.0222222	 0.0
0.2 0.0222222	 0.0
0.222222 0	 0.0
0.244444 0	 0.0
0.244444 0.0222222	 0.0
0.222222 0.0222222	 0.0
0.244444 0	 0.0
0.266667 0	 0.0
0.266667 0.0222222	 0.0
0.244444 0.0222222	 0.0
0.266667 0	 0.0
0.288889 0	 0.0
0.288889 0.0222222	 0.0
0.266667 0.0222222	 0.0
0.288889 0	 0.0
0.311111 0	 0.0
0.311111 0.0222222	 0.0
0.288889 0.0222222	 0.0
0.311111 0	 0.0
0.333333 0	 0.0
0.333333 0.0222222	 0.0
0.311111 0.0222222	 0.0
0.333333 0	 0.0
0.355556 0	 0.0
0.355556 0.0222222	 0.0
0.333333 0.0222222	 0.0
0.355556 0	 0.0
0.377778 0	 0.0
0.377778 0.0222222	 0.0
0.355556 0.0222222	 0.0
0.377778 0	 0.0
0.4 0	 0.0
0.4 0.0222222	 0.0
0.377778 0.0222222	 0.0
0.4 0	 0.0
0.422222 0	 0.0
0.422222 0.0222222	 0.0
0.4 0.0222222	 0.0
0.422222 0	 0.0
0.444444 0	 0.0
0.444444 0.0222222	 0.0
0.422222 0.0222222	 0.0
0.444444 0	 0.0
0.466667 0	 0.0
0.466667 0.0222222	 0.0
0.444444 0.0222222	 0.0
0.466667 0	 0.0
0.488889 0	 0.0
0.488889 0.0222222	 0.0
0.466667 0.0222222	 0.0
0.488889 0	 0.0
0.511111 0	 0.0
0.511111 0.0222222	 0.0
0.488889 0.0222222	 0.0
0.511111 0	 0.0
0.533333 0	 0.0
0.533333 0.0222222	 0.0
0.511111 0.0222222	 0.0
0.533333 0	 0.0
0.555556 0	 0.0
0.555556 0.0222222	 0.0
0.533333 0.0222222	 0.0
0.555556 0	 0.0
0.577778 0	 0.0
0.577778 0.0222222	 0.0
0.555556 0.0222222	 0.0
0.577778 0	 0.0
0.6 0	 0.0
0.6 0.0222222	 0.0
0.577778 0.0222222	 0.0
0.6 0	 0.0
0.622222 0	 0.0
0.622222 0.0222222	 0.0
0.6 0.0222222	 0.0
0.622222 0	 0.0
0.644444 0	 0.0
0.644444 0.0222222	 0.0
0.622222 0.0222222	 0.0
0.644444 0	 0.0
0.666667 0	 0.0
0.666667 0.0222222	 0.0
0.644444 0.0222222	 0.0
0.666667 0	 0.0
0.688889 0	 0.0
0.688889 0.0222222	 0.0
0.666667 0.0222222	 0.0
0.688889 0	 0.0
0.711111 0	 0.0
0.711111 0.0222222	 0.0
0.688889 0.0222222	 0.0
0.711111 0	 0.0
0.733333 0	 0.0
0.733333 0.0222222	 0.0
0.711111 0.0222222	 0.0
0.733333 0	 0.0
0.755556 0	 0.0
0.755556 0.0222222	 0.0
0.733333 0.0222222	 0.0
0.755556 0	 0.0
0.777778 0	 0.0
0.777778 0.0222222	 0.0
0.755556 0.0222222	 0.0
0.777778 0	 0.0
0.8 0	 0.0
0.8 0.0222222	 0.0
0.777778 0.0222222	 0.0
0.8 0	 0.0
0.822222 0	 0.0
0.822222 0.0222222	 0.0
0.8 0.0222222	 0.0
0.822222 0	 0.0
0.844444 0	 0.0
0.844444 0.0222222	 0.0
0.822222 0.0222222	 0.0
0.844444 0	 0.0
0.866667 0	 0.0
0.866667 0.0222222	 0.0
0.844444 0.0222222	 0.0
0.866667 0	 0.0
0.888889 0	 0.0
0.888889 0.0222222	 0.0
0.866667 0.0222222	 0.0
0.888889 0	 0.0
0.911111 0	 0.0
0.911111 0.0222222	 0.0
0.888889 0.0222222	 0.0
0.911111 0	 0.0
0.933333 0	 0.0
0.933333 0.0222222	 0.0
0.911111 0.0222222	 0.0
0.933333 0	 0.0
0.955556 0	 0.0
0.955556 0.0222222	 0.0
0.933333 0.0222222	 0.0
0.955556 0	 0.0
0.977778 0	 0.0
0.977778 0.0222222	 0.0
0.955556 0.0222222	 0.0
0.977778 0	 0.0
1 0	 0.0
1 0.0222222	 0.0
0.977778 0.0222222	 0.0
1 0	 0.0
1.02222 0	 0.0
1.02222 0.0222222	 0.0
1 0.0222222	 0.0
1.02222 0	 0.0
1.04444 0	 0.0
1.04444 0.0222222	 0.0
1.02222 0.0222222	 0.0
1.04444 0	 0.0
1.06667 0	 0.0
1.06667 0.0222222	 0.0
1.04444 0.0222222	 0.0
1.06667 0	 0.0
1.08889 0	 0.0
1.08889 0.0222222	 0.0
1.06667 0.0222222	 0.0
1.08889 0	 0.0
1.11111 0	 0.0
1.11111 0.0222222	 0.0
1.08889 0.0222222	 0.0
1.11111 0	 0.0
1.13333 0	 0.0
1.13333 0.0222222	 0.0
1.11111 0.0222222	 0.0
1.13333 0	 0.0
1.15556 0	 0.0
1.15556 0.0222222	 0.0
1.13333 0.0222222	 0.0
1.15556 0	 0.0
1.17778 0	 0.0
1.17778 0.0222222	 0.0
1.15556 0.0222222	 0.0
1.17778 0	 0.0
1.2 0	 0.0
1.2 0.0222222	 0.0
1.17778 0.0222222	 0.0
1.2 0	 0.0
1.22222 0	 0.0
1.22222 0.0222222	 0.0
1.2 0.0222222	 0.0
1.22222 0	 0.0
1.24444 0	 0.0
1.24444 0.0222222	 0.0
1.22222 0.0222222	 0.0
1.24444 0	 0.0
1.26667 0	 0.0
1.26667 0.0222222	 0.0
1.24444 0.0222222	 0.0
1.26667 0	 0.0
1.28889 0	 0.0
1.28889 0.0222222	 0.0
1.26667 0.0222222	 0.0
1.28889 0	 0.0
1.31111 0	 0.0
1.31111 0.0222222	 0.0
1.28889 0.0222222	 0.0
1.31111 0	 0.0
1.33333 0	 0.0
1.33333 0.0222222	 0.0
1.31111 0.0222222	 0.0
1.33333 0	 0.0
1.35556 0	 0.0
1.35556 0.0222222	 0.0
1.33333 0.0222222	 0.0
1.35556 0	 0.0
1.37778 0	 0.0
1.37778 0.0222222	 0.0
1.35556 0.0222222	 0.0
1.37778 0	 0.0
1.4 0	 0.0
1.4 0.0222222	 0.0
1.37778 0.0222222	 0.0
1.4 0	 0.0
1.42222 0	 0.0
1.42222 0.0222222	 0.0
1.4 0.0222222	 0.0
1.42222 0	 0.0
1.44444 0	 0.0
1.44444 0.0222222	 0.0
1.42222 0.0222222	 0.0
1.44444 0	 0.0
1.46667 0	 0.0
1.46667 0.0222222	 0.0
1.44444 0.0222222	 0.0
1.46667 0	 0.0
1.48889 0	 0.0
1.48889 0.0222222	 0.0
1.46667 0.0222222	 0.0
1.48889 0	 0.0
1.51111 0	 0.0
1.51111 0.0222222	 0.0
1.48889 0.0222222	 0.0
1.51111 0	 0.0
1.53333 0	 0.0
1.53333 0.0222222	 0.0
1.51111 0.0222222	 0.0
1.53333 0	 0.0
1.55556 0	 0.0
1.55556 0.0222222	 0.0
1.53333 0.0222222	 0.0
1.55556 0	 0.0
1.57778 0	 0.0
1.57778 0.0222222	 0.0
1.55556 0.0222222	 0.0
1.57778 0	 0.0
1.6 0	 0.0
1.6 0.0222222	 0.0
1.57778 0.0222222	 0.0
1.6 0	 0.0
1.62222 0	 0.0
1.62222 0.0222222	 0.0
1.6 0.0222222	 0.0
1.62222 0	 0.0
1.64444 0	 0.0
1.64444 0.0222222	 0.0
1.62222 0.0222222	 0.0
1.64444 0	 0.0
1.66667 0	 0.0
1.66667 0.0222222	 0.0
1.64444 0.0222222	 0.0
1.66667 0	 0.0
1.68889 0	 0.0
1.68889 0.0222222	 0.0
1.66667 0.0222222	 0.0
1.68889 0	 0.0
1.71111 0	 0.0
1.71111 0.0222222	 0.0
1.68889 0.0222222	 0.0
1.71111 0	 0.0
1.73333 0	 0.0
1.73333 0.0222222	 0.0
1.71111 0.0222222	 0.0
1.73333 0	 0.0
1.75556 0	 0.0
1.75556 0.0222222	 0.0
1.73333 0.0222222	 0.0
1.75556 0	 0.0
1.77778 0	 0.0
1.77778 0.0222222	 0.0
1.75556 0.0222222	 0.0
1.77778 0	 0.0
1.8 0	 0.0
1.8 0.0222222	 0.0
1.77778 0.0222222	 0.0
1.8 0	 0.0
1.82222 0	 0.0
1.82222 0.0222222	 0.0
1.8 0.0222222	 0.0
1.82222 0	 0.0
1.84444 0	 0.0
1.84444 0.0222222	 0.0
1.82222 0.0222222	 0.0
1.84444 0	 0.0
1.86667 0	 0.0
1.86667 0.0222222	 0.0
1.84444 0.0222222	 0.0
1.86667 0	 0.0
1.88889 0	 0.0
1.88889 0.0222222	 0.0
1.86667 0.0222222	 0.0
1.88889 0	 0.0
1.91111 0	 0.0
1.91111 0.0222222	 0.0
1.88889 0.0222222	 0.0
1.91111 0	 0.0
1.93333 0	 0.0
1.93333 0.0222222	 0.0
1.91111 0.0222222	 0.0
1.93333 0	 0.0
1.95556 0	 0.0
1.95556 0.0222222	 0.0
1.93333 0.0222222	 0.0
1.95556 0	 0.0
1.97778 0	 0.0
1.97778 0.0222222	 0.0
1.95556 0.0222222	 0.0
1.97778 0	 0.0
2 0	 0.0
2 0.0222222	 0.0
1.97778 0.0222222	 0.0
2 0	 0.0
2.02222 0	 0.0
2.02222 0.0222222	 0.0
2 0.0222222	 0.0
2.02222 0	 0.0
2.04444 0	 0.0
2.04444 0.0222222	 0.0
2.02222 0.0222222	 0.0
2.04444 0	 0.0
2.06667 0	 0.0
2.06667 0.0222222	 0.0
2.04444 0.0222222	 0.0
2.06667 0	 0.0
2.08889 0	 0.0
2.08889 0.0222222	 0.0
2.06667 0.0222222	 0.0
2.08889 0	 0.0
2.11111 0	 0.0
2.11111 0.0222222	 0.0
2.08889 0.0222222	 0.0
2.11111 0	 0.0
2.13333 0	 0.0
2.13333 0.0222222	 0.0
2.11111 0.0222222	 0.0
2.13333 0	 0.0
2.15556 0	 0.0
2.15556 0.0222222	 0.0
2.13333 0.0222222	 0.0
2.15556 0	 0.0
2.17778 0	 0.0
2.17778 0.0222222	 0.0
2.15556 0.0222222	 0.0
2.17778 0	 0.0
2.2 0	 0.0
2.2 0.0222222	 0.0
2.17778 0.0222222	 0.0
2.2 0	 0.0
2.22222 0	 0.0
2.22222 0.0222222	 0.0
2.2 0.0222222	 0.0
2.22222 0	 0.0
2.24444 0	 0.0
2.24444 0.0222222	 0.0
2.22222 0.0222222	 0.0
2.24444 0	 0.0
2.26667 0	 0.0
2.26667 0.0222222	 0.0
2.24444 0.0222222	 0.0
2.26667 0	 0.0
2.28889 0	 0.0
2.28889 0.0222222	 0.0
2.26667 0.0222222	 0.0
2.28889 0	 0.0
2.31111 0	 0.0
2.31111 0.0222222	 0.0
2.28889 0.0222222	 0.0
2.31111 0	 0.0
2.33333 0	 0.0
2.33333 0.0222222	 0.0
2.31111 0.0222222	 0.0
2.33333 0	 0.0
2.35556 0	 0.0
2.35556 0.0222222	 0.0
2.33333 0.0222222	 0.0
2.35556 0	 0.0
2.37778 0	 0.0
2.37778 0.0222222	 0.0
2.35556 0.0222222	 0.0
2.37778 0	 0.0
2.4 0	 0.0
2.4 0.0222222	 0.0
2.37778 0.0222222	 0.0
2.4 0	 0.0
2.42222 0	 0.0
2.42222 0.0222222	 0.0
2.4 0.0222222	 0.0
2.42222 0	 0.0
2.44444 0	 0.0
2.44444 0.0222222	 0.0
2.42222 0.0222222	 0.0
2.44444 0	 0.0
2.46667 0	 0.0
2.46667 0.0222222	 0.0
2.44444 0.0222222	 0.0
2.46667 0	 0.0
2.48889 0	 0.0
2.48889 0.0222222	 0.0
2.46667 0.0222222	 0.0
2.48889 0	 0.0
2.51111 0	 0.0
2.51111 0.0222222	 0.0
2.48889 0.0222222	 0.0
2.51111 0	 0.0
2.53333 0	 0.0
2.53333 0.0222222	 0.0
2.51111 0.0222222	 0.0
2.53333 0	 0.0
2.55556 0	 0.0
2.55556 0.0222222	 0.0
2.53333 0.0222222	 0.0
2.55556 0	 0.0
2.57778 0	 0.0
2.57778 0.0222222	 0.0
2.55556 0.0222222	 0.0
2.57778 0	 0.0
2.6 0	 0.0
2.6 0.0222222	 0.0
2.57778 0.0222222	 0.0
2.6 0	 0.0
2.62222 0	 0.0
2.62222 0.0222222	 0.0
2.6 0.0222222	 0.0
2.62222 0	 0.0
2.64444 0	 0.0
2.64444 0.0222222	 0.0
2.62222 0.0222222	 0.0
2.64444 0	 0.0
2.66667 0	 0.0
2.66667 0.0222222	 0.0
2.64444 0.0222222	 0.0
2.66667 0	 0.0
2.68889 0	 0.0
2.68889 0.0222222	 0.0
2.66667 0.0222222	 0.0
2.68889 0	 0.0
2.71111 0	 0.0
2.71111 0.0222222	 0.0
2.68889 0.0222222	 0.0
2.71111 0	 0.0
2.73333 0	 0.0
2.73333 0.0222222	 0.0
2.71111 0.0222222	 0.0
2.73333 0	 0.0
2.75556 0	 0.0
2.75556 0.0222222	 0.0
2.73333 0.0222222	 0.0
2.75556 0	 0.0
2.77778 0	 0.0
2.77778 0.0222222	 0.0
2.75556 0.0222222	 0.0
2.77778 0	 0.0
2.8 0	 0.0
2.8 0.0222222	 0.0
2.77778 0.0222222	 0.0
2.8 0	 0.0
2.82222 0	 0.0
2.82222 0.0222222	 0.0
2.8 0.0222222	 0.0
2.82222 0	 0.0
2.84444 0	 0.0
2.84444 0.0222222	 0.0
2.82222 0.0222222	 0.0
2.84444 0	 0.0
2.86667 0	 0.0
2.86667 0.0222222	 0.0
2.84444 0.0222222	 0.0
2.86667 0	 0.0
2.88889 0	 0.0
2.88889 0.0222222	 0.0
2.86667 0.0222222	 0.0
2.88889 0	 0.0
2.91111 0	 0.0
2.91111 0.0222222	 0.0
2.88889 0.0222222	 0.0
2.91111 0	 0.0
[...]
POINT_DATA 23440
SCALARS levelset_first float
LOOKUP_TABLE default
-4.01648
-3.93153
-3.90536
-3.99031
-3.93153
-3.84756
-3.82139
-3.90536
-3.84756
-3.76458
-3.73841
-3.82139
-3.76458
-3.68259
-3.65641
-3.73841
-3.68259
-3.60158
-3.57541
-3.65641
-3.60158
-3.52156
-3.49539
-3.57541
-3.52156
-3.44253
-3.41636
-3.49539
-3.44253
-3.36449
-3.33832
-3.41636
-3.36449
-3.28743
-3.26126
-3.33832
-3.28743
-3.21137
-3.18519
-3.26126
-3.21137
-3.13629
-3.11012
-3.18519
-3.13629
-3.0622
-3.03602
-3.11012
-3.0622
-2.98909
-2.96292
-3.03602
-2.98909
-2.91698
-2.8908
-2.96292
-2.91698
-2.84585
-2.81967
-2.8908
-2.84585
-2.7757
-2.74953
-2.81967
-2.7757
-2.70655
-2.68038
-2.74953
-2.70655
-2.63839
-2.61221
-2.68038
-2.63839
-2.57121
-2.54503
-2.61221
-2.57121
-2.50502
-2.47884
-2.54503
-2.50502
-2.43981
-2.41364
-2.47884
-2.43981
-2.3756
-2.34942
-2.41364
-2.3756
-2.31237
-2.2862
-2.34942
-2.31237
-2.25013
-2.22396
-2.2862
-2.25013
-2.18888
-2.1627
-2.22396
-2.18888
-2.12861
-2.10244
-2.1627
-2.12861
-2.06934
-2.04316
-2.10244
-2.06934
-2.01105
-1.98487
-2.04316
-2.01105
-1.95374
-1.92757
-1.98487
-1.95374
-1.89743
-1.87126
-1.92757
-1.89743
-1.8421
-1.81593
-1.87126
-1.8421
-1.78776
-1.76159
-1.81593
-1.78776
-1.73441
-1.70824
-1.76159
-1.73441
-1.68205
-1.65588
-1.70824
-1.68205
-1.63067
-1.6045
-1.65588
-1.63067
-1.58029
-1.55411
-1.6045
-1.58029
-1.53089
-1.50471
-1.55411
-1.53089
-1.48247
-1.4563
-1.50471
-1.48247
-1.43505
-1.40887
-1.4563
-1.43505
-1.38861
-1.36244
-1.40887
-1.38861
-1.34316
-1.31699
-1.36244
-1.34316
-1.2987
-1.27252
-1.31699
-1.2987
-1.25522
-1.22905
-1.27252
-1.25522
-1.21274
-1.18656
-1.22905
-1.21274
-1.17124
-1.14506
-1.18656
-1.17124
-1.13072
-1.10455
-1.14506
-1.13072
-1.0912
-1.06503
-1.10455
-1.0912
-1.05266
-1.02649
-1.06503
-1.05266
-1.01511
-0.988942
-1.02649
-1.01511
-0.978554
-0.952381
-0.988942
-0.978554
-0.94298
-0.916808
-0.952381
-0.94298
-0.908395
-0.882222
-0.916808
-0.908395
-0.874797
-0.848624
-0.882222
-0.874797
-0.842186
-0.816013
-0.848624
-0.842186
-0.810563
-0.78439
-0.816013
-0.810563
-0.779928
-0.753755
-0.78439
-0.779928
-0.750281
-0.724108
-0.753755
-0.750281
-0.721621
-0.695448
-0.724108
-0.721621
-0.693949
-0.667776
-0.695448
-0.693949
-0.667264
-0.641091
-0.667776
-0.667264
-0.641567
-0.615394
-0.641091
-0.641567
-0.616858
-0.590685
-0.615394
-0.616858
-0.593136
-0.566963
-0.590685
-0.593136
-0.570402
-0.54423
-0.566963
-0.570402
-0.548656
-0.522483
-0.54423
-0.548656
-0.527897
-0.501725
-0.522483
-0.527897
-0.508127
-0.481954
-0.501725
-0.508127
-0.489343
-0.46317
-0.481954
-0.489343
-0.471548
-0.445375
-0.46317
-0.471548
-0.45474
-0.428567
-0.445375
-0.45474
-0.438919
-0.412746
-0.428567
-0.438919
-0.424087
-0.397914
-0.412746
-0.424087
-0.410241
-0.384069
-0.397914
-0.410241
-0.397384
-0.371211
-0.384069
-0.397384
-0.385514
-0.359342
-0.371211
-0.385514
-0.374632
-0.348459
-0.359342
-0.374632
-0.364738
-0.338565
-0.348459
-0.364738
-0.355831
-0.329658
-0.338565
-0.355831
-0.347912
-0.321739
-0.329658
-0.347912
-0.340981
-0.314808
-0.321739
-0.340981
-0.335037
-0.308864
-0.314808
-0.335037
-0.330081
-0.303908
-0.308864
-0.330081
-0.326112
-0.299939
-0.303908
-0.326112
-0.323131
-0.296958
-0.299939
-0.323131
-0.321138
-0.294965
-0.296958
-0.321138
-0.320133
-0.29396
-0.294965
-0.320133
-0.320115
-0.293942
-0.29396
-0.320115
-0.321084
-0.294912
-0.293942
-0.321084
-0.323042
-0.296869
-0.294912
-0.323042
-0.325987
-0.299814
-0.296869
-0.325987
-0.32992
-0.303747
-0.299814
-0.32992
-0.33484
-0.308667
-0.303747
-0.33484
-0.340748
-0.314575
-0.308667
-0.340748
-0.347644
-0.321471
-0.314575
-0.347644
-0.355527
-0.329354
-0.321471
-0.355527
-0.364398
-0.338225
-0.329354
-0.364398
-0.374257
-0.348084
-0.338225
-0.374257
-0.385103
-0.35893
-0.348084
-0.385103
-0.396937
-0.370764
-0.35893
-0.396937
-0.409759
-0.383586
-0.370764
-0.409759
-0.423568
-0.397395
-0.383586
-0.423568
-0.438365
-0.412192
-0.397395
-0.438365
-0.45415
-0.427977
-0.412192
-0.45415
-0.470922
-0.444749
-0.427977
-0.470922
-0.488682
-0.462509
-0.444749
-0.488682
-0.507429
-0.481257
-0.462509
-0.507429
-0.527165
-0.500992
-0.481257
-0.527165
-0.547887
-0.521715
-0.500992
-0.547887
-0.569598
-0.543425
-0.521715
-0.569598
-0.592296
-0.566123
-0.543425
-0.592296
-0.615982
-0.589809
-0.566123
-0.615982
-0.640655
-0.614483
-0.589809
-0.640655
-0.666317
-0.640144
-0.614483
-0.666317
-0.692965
-0.666793
-0.640144
-0.692965
-0.720602
-0.694429
-0.666793
-0.720602
-0.749226
-0.723053
-0.694429
-0.749226
-0.778838
-0.752665
-0.723053
-0.778838
-0.809437
-0.783264
-0.752665
-0.809437
-0.841024
-0.814851
-0.783264
-0.841024
-0.873599
-0.847426
-0.814851
-0.873599
-0.907161
-0.880988
-0.847426
-0.907161
-0.941711
-0.915538
-0.880988
-0.941711
-0.977249
-0.951076
-0.915538
-0.977249
-1.01377
-0.987601
-0.951076
-1.01377
-1.05129
-1.02511
-0.987601
-1.05129
-1.08979
-1.06362
-1.02511
-1.08979
-1.12928
-1.1031
-1.06362
-1.12928
-1.16975
-1.14358
-1.1031
-1.16975
-1.21122
-1.18504
-1.14358
-1.21122
-1.25367
-1.22749
-1.18504
-1.25367
-1.29711
-1.27093
-1.22749
-1.29711
-1.34153
-1.31536
-1.27093
-1.34153
-1.38695
-1.36077
-1.31536
-1.38695
-1.43335
-1.40718
-1.36077
-1.43335
-1.48074
-1.45457
-1.40718
-3.99031
-3.90536
-3.88017
-3.96513
-3.90536
-3.82139
-3.7962
-3.88017
-3.82139
-3.73841
-3.71322
-3.7962
-3.73841
-3.65641
-3.63123
-3.71322
-3.65641
-3.57541
-3.55022
-3.63123
-3.57541
-3.49539
-3.4702
-3.55022
-3.49539
-3.41636
-3.39117
-3.4702
-3.41636
-3.33832
-3.31313
-3.39117
-3.33832
-3.26126
-3.23608
-3.31313
-3.26126
-3.18519
-3.16001
-3.23608
-3.18519
-3.11012
-3.08493
-3.16001
-3.11012
-3.03602
-3.01084
-3.08493
-3.03602
-2.96292
-2.93773
-3.01084
-2.96292
-2.8908
-2.86562
-2.93773
-2.8908
-2.81967
-2.79449
-2.86562
-2.81967
-2.74953
-2.72435
-2.79449
-2.74953
-2.68038
-2.65519
-2.72435
-2.68038
-2.61221
-2.58703
-2.65519
-2.61221
-2.54503
-2.51985
-2.58703
-2.54503
-2.47884
-2.45366
-2.51985
-2.47884
-2.41364
-2.38845
-2.45366
-2.41364
-2.34942
-2.32424
-2.38845
-2.34942
-2.2862
-2.26101
-2.32424
-2.2862
-2.22396
-2.19877
-2.26101
-2.22396
-2.1627
-2.13752
-2.19877
-2.1627
-2.10244
-2.07725
-2.13752
-2.10244
-2.04316
-2.01798
-2.07725
-2.04316
-1.98487
-1.95969
-2.01798
-1.98487
-1.92757
-1.90239
-1.95969
-1.92757
-1.87126
-1.84607
-1.90239
-1.87126
-1.81593
-1.79075
-1.84607
-1.81593
-1.76159
-1.73641
-1.79075
-1.76159
-1.70824
-1.68306
-1.73641
-1.70824
-1.65588
-1.63069
-1.68306
-1.65588
-1.6045
-1.57932
-1.63069
-1.6045
-1.55411
-1.52893
-1.57932
-1.55411
-1.50471
-1.47953
-1.52893
-1.50471
-1.4563
-1.43111
-1.47953
-1.4563
-1.40887
-1.38369
-1.43111
-1.40887
-1.36244
-1.33725
-1.38369
-1.36244
-1.31699
-1.2918
-1.33725
-1.31699
-1.27252
-1.24734
-1.2918
-1.27252
-1.22905
-1.20386
-1.24734
-1.22905
-1.18656
-1.16138
-1.20386
-1.18656
-1.14506
-1.11988
-1.16138
-1.14506
-1.10455
-1.07937
-1.11988
-1.10455
-1.06503
-1.03984
-1.07937
-1.06503
-1.02649
-1.00131
-1.03984
-1.02649
-0.988942
-0.963757
-1.00131
-0.988942
-0.952381
-0.927196
-0.963757
-0.952381
-0.916808
-0.891622
-0.927196
-0.916808
-0.882222
-0.857037
-0.891622
-0.882222
-0.848624
-0.823439
-0.857037
-0.848624
-0.816013
-0.790828
-0.823439
-0.816013
-0.78439
-0.759205
-0.790828
-0.78439
-0.753755
-0.72857
-0.759205
-0.753755
-0.724108
-0.698923
-0.72857
-0.724108
-0.695448
-0.670263
-0.698923
-0.695448
-0.667776
-0.642591
-0.670263
-0.667776
-0.641091
-0.615906
-0.642591
-0.641091
-0.615394
-0.590209
-0.615906
-0.615394
-0.590685
-0.5655
-0.590209
-0.590685
-0.566963
-0.541778
-0.5655
-0.566963
-0.54423
-0.519044
-0.541778
-0.54423
-0.522483
-0.497298
-0.519044
-0.522483
-0.501725
-0.476539
-0.497298
-0.501725
-0.481954
-0.456768
-0.476539
-0.481954
-0.46317
-0.437985
-0.456768
-0.46317
-0.445375
-0.42019
-0.437985
-0.445375
-0.428567
-0.403382
-0.42019
-0.428567
-0.412746
-0.387561
-0.403382
-0.412746
-0.397914
-0.372729
-0.387561
-0.397914
-0.384069
-0.358883
-0.372729
-0.384069
-0.371211
-0.346026
-0.358883
-0.371211
-0.359342
-0.334156
-0.346026
-0.359342
-0.348459
-0.323274
-0.334156
-0.348459
-0.338565
-0.31338
-0.323274
-0.338565
-0.329658
-0.304473
-0.31338
-0.329658
-0.321739
-0.296554
-0.304473
-0.321739
-0.314808
-0.289623
-0.296554
-0.314808
-0.308864
-0.283679
-0.289623
-0.308864
-0.303908
-0.278723
-0.283679
-0.303908
-0.299939
-0.274754
-0.278723
-0.299939
-0.296958
-0.271773
-0.274754
-0.296958
-0.294965
-0.26978
-0.271773
-0.294965
-0.29396
-0.268775
-0.26978
-0.29396
-0.293942
-0.268757
-0.268775
-0.293942
-0.294912
-0.269726
-0.268757
-0.294912
-0.296869
-0.271684
-0.269726
-0.296869
-0.299814
-0.274629
-0.271684
-0.299814
-0.303747
-0.278562
-0.274629
-0.303747
-0.308667
-0.283482
-0.278562
-0.308667
-0.314575
-0.28939
-0.283482
-0.314575
-0.321471
-0.296286
-0.28939
-0.321471
-0.329354
-0.304169
-0.296286
-0.329354
-0.338225
-0.31304
-0.304169
-0.338225
-0.348084
-0.322899
-0.31304
-0.348084
-0.35893
-0.333745
-0.322899
-0.35893
-0.370764
-0.345579
-0.333745
-0.370764
-0.383586
-0.358401
-0.345579
-0.383586
-0.397395
-0.37221
-0.358401
-0.397395
-0.412192
-0.387007
-0.37221
-0.412192
-0.427977
-0.402792
-0.387007
-0.427977
-0.444749
-0.419564
-0.402792
-0.444749
-0.462509
-0.437324
-0.419564
-0.462509
-0.481257
-0.456071
-0.437324
-0.481257
-0.500992
-0.475807
-0.456071
-0.500992
-0.521715
-0.496529
-0.475807
-0.521715
-0.543425
-0.51824
-0.496529
-0.543425
-0.566123
-0.540938
-0.51824
-0.566123
-0.589809
-0.564624
-0.540938
-0.589809
-0.614483
-0.589297
-0.564624
-0.614483
-0.640144
-0.614959
-0.589297
-0.640144
-0.666793
-0.641607
-0.614959
-0.666793
-0.694429
-0.669244
-0.641607
-0.694429
-0.723053
-0.697868
-0.669244
-0.723053
-0.752665
-0.72748
-0.697868
-0.752665
-0.783264
-0.758079
-0.72748
-0.783264
-0.814851
-0.789666
-0.758079
-0.814851
-0.847426
-0.822241
-0.789666
-0.847426
-0.880988
-0.855803
-0.822241
-0.880988
-0.915538
-0.890353
-0.855803
-0.915538
-0.951076
-0.925891
-0.890353
-0.951076
-0.987601
-0.962416
-0.925891
-0.987601
-1.02511
-0.999929
-0.962416
-1.02511
-1.06362
-1.03843
-0.999929
-1.06362
-1.1031
-1.07792
-1.03843
-1.1031
-1.14358
-1.11839
-1.07792
-1.14358
-1.18504
-1.15986
-1.11839
-1.18504
-1.22749
-1.20231
-1.15986
-1.22749
-1.27093
-1.24575
-1.20231
-1.27093
-1.31536
-1.29017
-1.24575
-1.31536
-1.36077
-1.33559
-1.29017
-1.36077
-1.40718
-1.38199
-1.33559
-1.40718
-1.45457
-1.42938
-1.38199
-3.96513
-3.88017
-3.85597
-3.94093
-3.88017
-3.7962
-3.772
-3.85597
-3.7962
-3.71322
-3.68902
-3.772
-3.71322
-3.63123
-3.60703
-3.68902
-3.63123
-3.55022
-3.52602
-3.60703
-3.55022
-3.4702
-3.44601
-3.52602
-3.4702
-3.39117
-3.36698
-3.44601
-3.39117
-3.31313
-3.28893
-3.36698
-3.31313
-3.23608
-3.21188
-3.28893
-3.23608
-3.16001
-3.13581
-3.21188
-3.16001
-3.08493
-3.06073
-3.13581
-3.08493
-3.01084
-2.98664
-3.06073
-3.01084
-2.93773
-2.91354
-2.98664
-2.93773
-2.86562
-2.84142
-2.91354
-2.86562
-2.79449
-2.77029
-2.84142
-2.79449
-2.72435
-2.70015
-2.77029
-2.72435
-2.65519
-2.631
-2.70015
-2.65519
-2.58703
-2.56283
-2.631
-2.58703
-2.51985
-2.49565
-2.56283
-2.51985
-2.45366
-2.42946
-2.49565
-2.45366
-2.38845
-2.36426
-2.42946
-2.38845
-2.32424
-2.30004
-2.36426
-2.32424
-2.26101
-2.23681
-2.30004
-2.26101
-2.19877
-2.17457
-2.23681
-2.19877
-2.13752
-2.11332
-2.17457
-2.13752
-2.07725
-2.05306
-2.11332
-2.07725
-2.01798
-1.99378
-2.05306
-2.01798
-1.95969
-1.93549
-1.99378
-1.95969
-1.90239
-1.87819
-1.93549
-1.90239
-1.84607
-1.82187
-1.87819
-1.84607
-1.79075
-1.76655
-1.82187
-1.79075
-1.73641
-1.71221
-1.76655
-1.73641
-1.68306
-1.65886
-1.71221
-1.68306
-1.63069
-1.60649
-1.65886
-1.63069
-1.57932
-1.55512
-1.60649
-1.57932
-1.52893
-1.50473
-1.55512
-1.52893
-1.47953
-1.45533
-1.50473
-1.47953
-1.43111
-1.40692
-1.45533
-1.43111
-1.38369
-1.35949
-1.40692
-1.38369
-1.33725
-1.31305
-1.35949
-1.33725
-1.2918
-1.2676
-1.31305
-1.2918
-1.24734
-1.22314
-1.2676
-1.24734
-1.20386
-1.17967
-1.22314
-1.20386
-1.16138
-1.13718
-1.17967
-1.16138
-1.11988
-1.09568
-1.13718
-1.11988
-1.07937
-1.05517
-1.09568
-1.07937
-1.03984
-1.01564
-1.05517
-1.03984
-1.00131
-0.977108
-1.01564
-1.00131
-0.963757
-0.939559
-0.977108
-0.963757
-0.927196
-0.902998
-0.939559
-0.927196
-0.891622
-0.867425
-0.902998
-0.891622
-0.857037
-0.832839
-0.867425
-0.857037
-0.823439
-0.799241
-0.832839
-0.823439
-0.790828
-0.766631
-0.799241
-0.790828
-0.759205
-0.735008
-0.766631
-0.759205
-0.72857
-0.704373
-0.735008
-0.72857
-0.698923
-0.674725
-0.704373
-0.698923
-0.670263
-0.646065
-0.674725
-0.670263
-0.642591
-0.618393
-0.646065
-0.642591
-0.615906
-0.591708
-0.618393
-0.615906
-0.590209
-0.566012
-0.591708
-0.590209
-0.5655
-0.541302
-0.566012
-0.5655
-0.541778
-0.517581
-0.541302
-0.541778
-0.519044
-0.494847
-0.517581
-0.519044
-0.497298
-0.473101
-0.494847
-0.497298
-0.476539
-0.452342
-0.473101
-0.476539
-0.456768
-0.432571
-0.452342
-0.456768
-0.437985
-0.413788
-0.432571
-0.437985
-0.42019
-0.395992
-0.413788
-0.42019
-0.403382
-0.379184
-0.395992
-0.403382
-0.387561
-0.363364
-0.379184
-0.387561
-0.372729
-0.348531
-0.363364
-0.372729
-0.358883
-0.334686
-0.348531
-0.358883
-0.346026
-0.321829
-0.334686
-0.346026
-0.334156
-0.309959
-0.321829
-0.334156
-0.323274
-0.299077
-0.309959
-0.323274
-0.31338
-0.289182
-0.299077
-0.31338
-0.304473
-0.280276
-0.289182
-0.304473
-0.296554
-0.272356
-0.280276
-0.296554
-0.289623
-0.265425
-0.272356
-0.289623
-0.283679
-0.259481
-0.265425
-0.283679
-0.278723
-0.254525
-0.259481
-0.278723
-0.274754
-0.250557
-0.254525
-0.274754
-0.271773
-0.247576
-0.250557
-0.271773
-0.26978
-0.245583
-0.247576
-0.26978
-0.268775
-0.244577
-0.245583
-0.268775
-0.268757
-0.244559
-0.244577
-0.268757
-0.269726
-0.245529
-0.244559
-0.269726
-0.271684
-0.247486
-0.245529
-0.271684
-0.274629
-0.250431
-0.247486
-0.274629
-0.278562
-0.254364
-0.250431
-0.278562
-0.283482
-0.259285
-0.254364
-0.283482
-0.28939
-0.265193
-0.259285
-0.28939
-0.296286
-0.272088
-0.265193
-0.296286
-0.304169
-0.279972
-0.272088
-0.304169
-0.31304
-0.288843
-0.279972
-0.31304
-0.322899
-0.298701
-0.288843
-0.322899
-0.333745
-0.309548
-0.298701
-0.333745
-0.345579
-0.321382
-0.309548
-0.345579
-0.358401
-0.334203
-0.321382
-0.358401
-0.37221
-0.348013
-0.334203
-0.37221
-0.387007
-0.36281
-0.348013
-0.387007
-0.402792
-0.378594
-0.36281
-0.402792
-0.419564
-0.395366
-0.378594
-0.419564
-0.437324
-0.413126
-0.395366
-0.437324
-0.456071
-0.431874
-0.413126
-0.456071
-0.475807
-0.451609
-0.431874
-0.475807
-0.496529
-0.472332
-0.451609
-0.496529
-0.51824
-0.494042
-0.472332
-0.51824
-0.540938
-0.516741
-0.494042
-0.540938
-0.564624
-0.540426
-0.516741
-0.564624
-0.589297
-0.5651
-0.540426
-0.589297
-0.614959
-0.590761
-0.5651
-0.614959
-0.641607
-0.61741
-0.590761
-0.641607
-0.669244
-0.645046
-0.61741
-0.669244
-0.697868
-0.67367
-0.645046
-0.697868
-0.72748
-0.703282
-0.67367
-0.72748
-0.758079
-0.733882
-0.703282
-0.758079
-0.789666
-0.765469
-0.733882
-0.789666
-0.822241
-0.798043
-0.765469
-0.822241
-0.855803
-0.831606
-0.798043
-0.855803
-0.890353
-0.866156
-0.831606
-0.890353
-0.925891
-0.901693
-0.866156
-0.925891
-0.962416
-0.938219
-0.901693
-0.962416
-0.999929
-0.975732
-0.938219
-0.999929
-1.03843
-1.01423
-0.975732
-1.03843
-1.07792
-1.05372
-1.01423
-1.07792
-1.11839
-1.0942
-1.05372
-1.11839
-1.15986
-1.13566
-1.0942
-1.15986
-1.20231
-1.17811
-1.13566
-1.20231
-1.24575
-1.22155
-1.17811
-1.24575
-1.29017
-1.26598
-1.22155
-1.29017
-1.33559
-1.31139
-1.26598
-1.33559
-1.38199
-1.35779
-1.31139
-1.38199
-1.42938
-1.40518
-1.35779
-3.94093
-3.85597
-3.83276
-3.91772
-3.85597
-3.772
-3.74879
-3.83276
-3.772
-3.68902
-3.66581
-3.74879
-3.68902
-3.60703
-3.58382
-3.66581
-3.60703
-3.52602
-3.50282
-3.58382
-3.52602
-3.44601
-3.4228
-3.50282
-3.44601
-3.36698
-3.34377
-3.4228
-3.36698
-3.28893
-3.26572
-3.34377
-3.28893
-3.21188
-3.18867
-3.26572
-3.21188
-3.13581
-3.1126
-3.18867
-3.13581
-3.06073
-3.03752
-3.1126
-3.06073
-2.98664
-2.96343
-3.03752
-2.98664
-2.91354
-2.89033
-2.96343
-2.91354
-2.84142
-2.81821
-2.89033
-2.84142
-2.77029
-2.74708
-2.81821
-2.77029
-2.70015
-2.67694
-2.74708
-2.70015
-2.631
-2.60779
-2.67694
-2.631
-2.56283
-2.53962
-2.60779
-2.56283
-2.49565
-2.47244
-2.53962
-2.49565
-2.42946
-2.40625
-2.47244
-2.42946
-2.36426
-2.34105
-2.40625
-2.36426
-2.30004
-2.27683
-2.34105
-2.30004
-2.23681
-2.2136
-2.27683
-2.23681
-2.17457
-2.15136
-2.2136
-2.17457
-2.11332
-2.09011
-2.15136
-2.11332
-2.05306
-2.02985
-2.09011
-2.05306
-1.99378
-1.97057
-2.02985
-1.99378
-1.93549
-1.91228
-1.97057
-1.93549
-1.87819
-1.85498
-1.91228
-1.87819
-1.82187
-1.79866
-1.85498
-1.82187
-1.76655
-1.74334
-1.79866
-1.76655
-1.71221
-1.689
-1.74334
-1.71221
-1.65886
-1.63565
-1.689
-1.65886
-1.60649
-1.58328
-1.63565
-1.60649
-1.55512
-1.53191
-1.58328
-1.55512
-1.50473
-1.48152
-1.53191
-1.50473
-1.45533
-1.43212
-1.48152
-1.45533
-1.40692
-1.38371
-1.43212
-1.40692
-1.35949
-1.33628
-1.38371
-1.35949
-1.31305
-1.28984
-1.33628
-1.31305
-1.2676
-1.24439
-1.28984
-1.2676
-1.22314
-1.19993
-1.24439
-1.22314
-1.17967
-1.15646
-1.19993
-1.17967
-1.13718
-1.11397
-1.15646
-1.13718
-1.09568
-1.07247
-1.11397
-1.09568
-1.05517
-1.03196
-1.07247
-1.05517
-1.01564
-0.992435
-1.03196
-1.01564
-0.977108
-0.953898
-0.992435
-0.977108
-0.939559
-0.91635
-0.953898
-0.939559
-0.902998
-0.879788
-0.91635
-0.902998
-0.867425
-0.844215
-0.879788
-0.867425
-0.832839
-0.809629
-0.844215
-0.832839
-0.799241
-0.776031
-0.809629
-0.799241
-0.766631
-0.743421
-0.776031
-0.766631
-0.735008
-0.711798
-0.743421
-0.735008
-0.704373
-0.681163
-0.711798
-0.704373
-0.674725
-0.651515
-0.681163
-0.674725
-0.646065
-0.622855
-0.651515
-0.646065
-0.618393
-0.595183
-0.622855
-0.618393
-0.591708
-0.568499
-0.595183
-0.591708
-0.566012
-0.542802
-0.568499
-0.566012
-0.541302
-0.518092
-0.542802
-0.541302
-0.517581
-0.494371
-0.518092
-0.517581
-0.494847
-0.471637
-0.494371
-0.494847
-0.473101
-0.449891
-0.471637
-0.473101
-0.452342
-0.429132
-0.449891
-0.452342
-0.432571
-0.409361
-0.429132
-0.432571
-0.413788
-0.390578
-0.409361
-0.413788
-0.395992
-0.372782
-0.390578
-0.395992
-0.379184
-0.355974
-0.372782
-0.379184
-0.363364
-0.340154
-0.355974
-0.363364
-0.348531
-0.325321
-0.340154
-0.348531
-0.334686
-0.311476
-0.325321
-0.334686
-0.321829
-0.298619
-0.311476
-0.321829
-0.309959
-0.286749
-0.298619
-0.309959
-0.299077
-0.275867
-0.286749
-0.299077
-0.289182
-0.265972
-0.275867
-0.289182
-0.280276
-0.257066
-0.265972
-0.280276
-0.272356
-0.249147
-0.257066
-0.272356
-0.265425
-0.242215
-0.249147
-0.265425
-0.259481
-0.236271
-0.242215
-0.259481
-0.254525
-0.231315
-0.236271
-0.254525
-0.250557
-0.227347
-0.231315
-0.250557
-0.247576
-0.224366
-0.227347
-0.247576
-0.245583
-0.222373
-0.224366
-0.245583
-0.244577
-0.221367
-0.222373
-0.244577
-0.244559
-0.221349
-0.221367
-0.244559
-0.245529
-0.222319
-0.221349
-0.245529
-0.247486
-0.224276
-0.222319
-0.247486
-0.250431
-0.227222
-0.224276
-0.250431
-0.254364
-0.231154
-0.227222
-0.254364
-0.259285
-0.236075
-0.231154
-0.259285
-0.265193
-0.241983
-0.236075
-0.265193
-0.272088
-0.248878
-0.241983
-0.272088
-0.279972
-0.256762
-0.248878
-0.279972
-0.288843
-0.265633
-0.256762
-0.288843
-0.298701
-0.275491
-0.265633
-0.298701
-0.309548
-0.286338
-0.275491
-0.309548
-0.321382
-0.298172
-0.286338
-0.321382
-0.334203
-0.310993
-0.298172
-0.334203
-0.348013
-0.324803
-0.310993
-0.348013
-0.36281
-0.3396
-0.324803
-0.36281
-0.378594
-0.355384
-0.3396
-0.378594
-0.395366
-0.372156
-0.355384
-0.395366
-0.413126
-0.389916
-0.372156
-0.413126
-0.431874
-0.408664
-0.389916
-0.431874
-0.451609
-0.428399
-0.408664
-0.451609
-0.472332
-0.449122
-0.428399
-0.472332
-0.494042
-0.470833
-0.449122
-0.494042
-0.516741
-0.493531
-0.470833
-0.516741
-0.540426
-0.517217
-0.493531
-0.540426
-0.5651
-0.54189
-0.517217
-0.5651
-0.590761
-0.567551
-0.54189
-0.590761
-0.61741
-0.5942
-0.567551
-0.61741
-0.645046
-0.621836
-0.5942
-0.645046
-0.67367
-0.65046
-0.621836
-0.67367
-0.703282
-0.680072
-0.65046
-0.703282
-0.733882
-0.710672
-0.680072
-0.733882
-0.765469
-0.742259
-0.710672
-0.765469
-0.798043
-0.774833
-0.742259
-0.798043