# vtk DataFile Version 1.0
unstructured Grid
ASCII
DATASET UNSTRUCTURED_GRID
POINTS 23424 float 
0 0	 0.0
0.0222222 0	 0.0
0.0222222 0.0222222	 0.0
0 0.0222222	 0.0
0.0222222 0	 0.0
0.0444444 0	 0.0
0.0444444 0.0222222	 0.0
0.0222222 0.0222222	 0.0
0.0444444 0	 0.0
0.0666667 0	 0.0
0.0666667 0.0222222	 0.0
0.0444444 0.0222222	 0.0
0.0666667 0	 0.0
0.0888889 0	 0.0
0.0888889 0.0222222	 0.0
0.0666667 0.0222222	 0.0
0.0888889 0	 0.0
0.111111 0	 0.0
0.111111 0.0222222	 0.0
0.0888889 0.0222222	 0.0
0.111111 0	 0.0
0.133333 0	 0.0
0.133333 0.0222222	 0.0
0.111111 0.0222222	 0.0
0.133333 0	 0.0
0.155556 0	 0.0
0.155556 0.0222222	 0.0
0.133333 0.0222222	 0.0
0.155556 0	 0.0
0.177778 0	 0.0
0.177778 0.0222222	 0.0
0.155556 0.0222222	 0.0
0.177778 0	 0.0
0.2 0	 0.0
0.2 0.0222222	 0.0
0.177778 0.0222222	 0.0
0.2 0	 0.0
0.222222 0	 0.0
0.222222 0.0222222	 0.0
0.2 0.0222222	 0.0
0.222222 0	 0.0
0.244444 0	 0.0
0.244444 0.0222222	 0.0
0.222222 0.0222222	 0.0
0.244444 0	 0.0
0.266667 0	 0.0
0.266667 0.0222222	 0.0
0.244444 0.0222222	 0.0
0.266667 0	 0.0
0.288889 0	 0.0
0.288889 0.0222222	 0.0
0.266667 0.0222222	 0.0
0.288889 0	 0.0
0.311111 0	 0.0
0.311111 0.0222222	 0.0
0.288889 0.0222222	 0.0
0.311111 0	 0.0
0.333333 0	 0.0
0.333333 0.0222222	 0.0
0.311111 0.0222222	 0.0
0.333333 0	 0.0
0.355556 0	 0.0
0.355556 0.0222222	 0.0
0.333333 0.0222222	 0.0
0.355556 0	 0.0
0.377778 0	 0.0
0.377778 0.0222222	 0.0
0.355556 0.0222222	 0.0
0.377778 0	 0.0
0.4 0	 0.0
0.4 0.0222222	 0.0
0.377778 0.0222222	 0.0
0.4 0	 0.0
0.422222 0	 0.0
0.422222 0.0222222	 0.0
0.4 0.0222222	 0.0
0.422222 0	 0.0
0.444444 0	 0.0
0.444444 0.0222222	 0.0
0.422222 0.0222222	 0.0
0.444444 0	 0.0
0.466667 0	 0.0
0.466667 0.0222222	 0.0
0.444444 0.0222222	 0.0
0.466667 0	 0.0
0.488889 0	 0.0
0.488889 0.0222222	 0.0
0.466667 0.0222222	 0.0
0.488889 0	 0.0
0.511111 0	 0.0
0.511111 0.0222222	 0.0
0.488889 0.0222222	 0.0
0.511111 0	 0.0
0.533333 0	 0.0
0.533333 0.0222222	 0.0
0.511111 0.0222222	 0.0
0.533333 0	 0.0
0.555556 0	 0.0
0.555556 0.0222222	 0.0
0.533333 0.0222222	 0.0
0.555556 0	 0.0
0.577778 0	 0.0
0.577778 0.0222222	 0.0
0.555556 0.0222222	 0.0
0.577778 0	 0.0
0.6 0	 0.0
0.6 0.0222222	 0.0
0.577778 0.0222222	 0.0
0.6 0	 0.0
0.622222 0	 0.0
0.622222 0.0222222	 0.0
0.6 0.0222222	 0.0
0.622222 0	 0.0
0.644444 0	 0.0
0.644444 0.0222222	 0.0
0.622222 0.0222222	 0.0
0.644444 0	 0.0
0.666667 0	 0.0
0.666667 0.0222222	 0.0
0.644444 0.0222222	 0.0
0.666667 0	 0.0
0.688889 0	 0.0
0.688889 0.0222222	 0.0
0.666667 0.0222222	 0.0
0.688889 0	 0.0
0.711111 0	 0.0
0.711111 0.0222222	 0.0
0.688889 0.0222222	 0.0
0.711111 0	 0.0
0.733333 0	 0.0
0.733333 0.0222222	 0.0
0.711111 0.0222222	 0.0
0.733333 0	 0.0
0.755556 0	 0.0
0.755556 0.0222222	 0.0
0.733333 0.0222222	 0.0
0.755556 0	 0.0
0.777778 0	 0.0
0.777778 0.0222222	 0.0
0.755556 0.0222222	 0.0
0.777778 0	 0.0
0.8 0	 0.0
0.8 0.0222222	 0.0
0.777778 0.0222222	 0.0
0.8 0	 0.0
0.822222 0	 0.0
0.822222 0.0222222	 0.0
0.8 0.0222222	 0.0
0.822222 0	 0.0
0.844444 0	 0.0
0.844444 0.0222222	 0.0
0.822222 0.0222222	 0.0
0.844444 0	 0.0
0.866667 0	 0.0
0.866667 0.0222222	 0.0
0.844444 0.0222222	 0.0
0.866667 0	 0.0
0.888889 0	 0.0
0.888889 0.0222222	 0.0
0.866667 0.0222222	 0.0
0.888889 0	 0.0
0.911111 0	 0.0
0.911111 0.0222222	 0.0
0.888889 0.0222222	 0.0
0.911111 0	 0.0
0.933333 0	 0.0
0.933333 0.0222222	 0.0
0.911111 0.0222222	 0.0
0.933333 0	 0.0
0.955556 0	 0.0
0.955556 0.0222222	 0.0
0.933333 0.0222222	 0.0
0.955556 0	 0.0
0.977778 0	 0.0
0.977778 0.0222222	 0.0
0.955556 0.0222222	 0.0
0.977778 0	 0.0
1 0	 0.0
1 0.0222222	 0.0
0.977778 0.0222222	 0.0
1 0	 0.0
1.02222 0	 0.0
1.02222 0.0222222	 0.0
1 0.0222222	 0.0
1.02222 0	 0.0
1.04444 0	 0.0
1.04444 0.0222222	 0.0
1.02222 0.0222222	 0.0
1.04444 0	 0.0
1.06667 0	 0.0
1.06667 0.0222222	 0.0
1.04444 0.0222222	 0.0
1.06667 0	 0.0
1.08889 0	 0.0
1.08889 0.0222222	 0.0
1.06667 0.0222222	 0.0
1.08889 0	 0.0
1.11111 0	 0.0
1.11111 0.0222222	 0.0
1.08889 0.0222222	 0.0
1.11111 0	 0.0
1.13333 0	 0.0
1.13333 0.0222222	 0.0
1.11111 0.0222222	 0.0
1.13333 0	 0.0
1.15556 0	 0.0
1.15556 0.0222222	 0.0
1.13333 0.0222222	 0.0
1.15556 0	 0.0
1.17778 0	 0.0
1.17778 0.0222222	 0.0
1.15556 0.0222222	 0.0
1.17778 0	 0.0
1.2 0	 0.0
1.2 0.0222222	 0.0
1.17778 0.0222222	 0.0
1.2 0	 0.0
1.22222 0	 0.0
1.22222 0.0222222	 0.0
1.2 0.0222222	 0.0
1.22222 0	 0.0
1.24444 0	 0.0
1.24444 0.0222222	 0.0
1.22222 0.0222222	 0.0
1.24444 0	 0.0
1.26667 0	 0.0
1.26667 0.0222222	 0.0
1.24444 0.0222222	 0.0
1.26667 0	 0.0
1.28889 0	 0.0
1.28889 0.0222222	 0.0
1.26667 0.0222222	 0.0
1.28889 0	 0.0
1.31111 0	 0.0
1.31111 0.0222222	 0.0
1.28889 0.0222222	 0.0
1.31111 0	 0.0
1.33333 0	 0.0
1.33333 0.0222222	 0.0
1.31111 0.0222222	 0.0
1.33333 0	 0.0
1.35556 0	 0.0
1.35556 0.0222222	 0.0
1.33333 0.0222222	 0.0
1.35556 0	 0.0
1.37778 0	 0.0
1.37778 0.0222222	 0.0
1.35556 0.0222222	 0.0
1.37778 0	 0.0
1.4 0	 0.0
1.4 0.0222222	 0.0
1.37778 0.0222222	 0.0
1.4 0	 0.0
1.42222 0	 0.0
1.42222 0.0222222	 0.0
1.4 0.0222222	 0.0
1.42222 0	 0.0
1.44444 0	 0.0
1.44444 0.0222222	 0.0
1.42222 0.0222222	 0.0
1.44444 0	 0.0
1.46667 0	 0.0
1.46667 0.0222222	 0.0
1.44444 0.0222222	 0.0
1.46667 0	 0.0
1.48889 0	 0.0
1.48889 0.0222222	 0.0
1.46667 0.0222222	 0.0
1.48889 0	 0.0
1.51111 0	 0.0
1.51111 0.0222222	 0.0
1.48889 0.0222222	 0.0
1.51111 0	 0.0
1.53333 0	 0.0
1.53333 0.0222222	 0.0
1.51111 0.0222222	 0.0
1.53333 0	 0.0
1.55556 0	 0.0
1.55556 0.0222222	 0.0
1.53333 0.0222222	 0.0
1.55556 0	 0.0
1.57778 0	 0.0
1.57778 0.0222222	 0.0
1.55556 0.0222222	 0.0
1.57778 0	 0.0
1.6 0	 0.0
1.6 0.0222222	 0.0
1.57778 0.0222222	 0.0
1.6 0	 0.0
1.62222 0	 0.0
1.62222 0.0222222	 0.0
1.6 0.0222222	 0.0
1.62222 0	 0.0
1.64444 0	 0.0
1.64444 0.0222222	 0.0
1.62222 0.0222222	 0.0
1.64444 0	 0.0
1.66667 0	 0.0
1.66667 0.0222222	 0.0
1.64444 0.0222222	 0.0
1.66667 0	 0.0
1.68889 0	 0.0
1.68889 0.0222222	 0.0
1.66667 0.0222222	 0.0
1.68889 0	 0.0
1.71111 0	 0.0
1.71111 0.0222222	 0.0
1.68889 0.0222222	 0.0
1.71111 0	 0.0
1.73333 0	 0.0
1.73333 0.0222222	 0.0
1.71111 0.0222222	 0.0
1.73333 0	 0.0
1.75556 0	 0.0
1.75556 0.0222222	 0.0
1.73333 0.0222222	 0.0
1.75556 0	 0.0
1.77778 0	 0.0
1.77778 0.0222222	 0.0
1.75556 0.0222222	 0.0
1.77778 0	 0.0
1.8 0	 0.0
1.8 0.0222222	 0.0
1.77778 0.0222222	 0.0
1.8 0	 0.0
1.82222 0	 0.0
1.82222 0.0222222	 0.0
1.8 0.0222222	 0.0
1.82222 0	 0.0
1.84444 0	 0.0
1.84444 0.0222222	 0.0
1.82222 0.0222222	 0.0
1.84444 0	 0.0
1.86667 0	 0.0
1.86667 0.0222222	 0.0
1.84444 0.0222222	 0.0
1.86667 0	 0.0
1.88889 0	 0.0
1.88889 0.0222222	 0.0
1.86667 0.0222222	 0.0
1.88889 0	 0.0
1.91111 0	 0.0
1.91111 0.0222222	 0.0
1.88889 0.0222222	 0.0
1.91111 0	 0.0
1.93333 0	 0.0
1.93333 0.0222222	 0.0
1.91111 0.0222222	 0.0
1.93333 0	 0.0
1.95556 0	 0.0
1.95556 0.0222222	 0.0
1.93333 0.0222222	 0.0
1.95556 0	 0.0
1.97778 0	 0.0
1.97778 0.0222222	 0.0
1.95556 0.0222222	 0.0
1.97778 0	 0.0
2 0	 0.0
2 0.0222222	 0.0
1.97778 0.0222222	 0.0
2 0	 0.0
2.02222 0	 0.0
2.02222 0.0222222	 0.0
2 0.0222222	 0.0
2.02222 0	 0.0
2.04444 0	 0.0
2.04444 0.0222222	 0.0
2.02222 0.0222222	 0.0
2.04444 0	 0.0
2.06667 0	 0.0
2.06667 0.0222222	 0.0
2.04444 0.0222222	 0.0
2.06667 0	 0.0
2.08889 0	 0.0
2.08889 0.0222222	 0.0
2.06667 0.0222222	 0.0
2.08889 0	 0.0
2.11111 0	 0.0
2.11111 0.0222222	 0.0
2.08889 0.0222222	 0.0
2.11111 0	 0.0
2.13333 0	 0.0
2.13333 0.0222222	 0.0
2.11111 0.0222222	 0.0
2.13333 0	 0.0
2.15556 0	 0.0
2.15556 0.0222222	 0.0
2.13333 0.0222222	 0.0
2.15556 0	 0.0
2.17778 0	 0.0
2.17778 0.0222222	 0.0
2.15556 0.0222222	 0.0
2.17778 0	 0.0
2.2 0	 0.0
2.2 0.0222222	 0.0
2.17778 0.0222222	 0.0
2.2 0	 0.0
2.22222 0	 0.0
2.22222 0.0222222	 0.0
2.2 0.0222222	 0.0
2.22222 0	 0.0
2.24444 0	 0.0
2.24444 0.0222222	 0.0
2.22222 0.0222222	 0.0
2.24444 0	 0.0
2.26667 0	 0.0
2.26667 0.0222222	 0.0
2.24444 0.0222222	 0.0
2.26667 0	 0.0
2.28889 0	 0.0
2.28889 0.0222222	 0.0
2.26667 0.0222222	 0.0
2.28889 0	 0.0
2.31111 0	 0.0
2.31111 0.0222222	 0.0
2.28889 0.0222222	 0.0
2.31111 0	 0.0
2.33333 0	 0.0
2.33333 0.0222222	 0.0
2.31111 0.0222222	 0.0
2.33333 0	 0.0
2.35556 0	 0.0
2.35556 0.0222222	 0.0
2.33333 0.0222222	 0.0
2.35556 0	 0.0
2.37778 0	 0.0
2.37778 0.0222222	 0.0
2.35556 0.0222222	 0.0
2.37778 0	 0.0
2.4 0	 0.0
2.4 0.0222222	 0.0
2.37778 0.0222222	 0.0
2.4 0	 0.0
2.42222 0	 0.0
2.42222 0.0222222	 0.0
2.4 0.0222222	 0.0
2.42222 0	 0.0
2.44444 0	 0.0
2.44444 0.0222222	 0.0
2.42222 0.0222222	 0.0
2.44444 0	 0.0
2.46667 0	 0.0
2.46667 0.0222222	 0.0
2.44444 0.0222222	 0.0
2.46667 0	 0.0
2.48889 0	 0.0
2.48889 0.0222222	 0.0
2.46667 0.0222222	 0.0
2.48889 0	 0.0
2.51111 0	 0.0
2.51111 0.0222222	 0.0
2.48889 0.0222222	 0.0
2.51111 0	 0.0
2.53333 0	 0.0
2.53333 0.0222222	 0.0
2.51111 0.0222222	 0.0
2.53333 0	 0.0
2.55556 0	 0.0
2.55556 0.0222222	 0.0
2.53333 0.0222222	 0.0
2.55556 0	 0.0
2.57778 0	 0.0
2.57778 0.0222222	 0.0
2.55556 0.0222222	 0.0
2.57778 0	 0.0
2.6 0	 0.0
2.6 0.0222222	 0.0
2.57778 0.0222222	 0.0
2.6 0	 0.0
2.62222 0	 0.0
2.62222 0.0222222	 0.0
2.6 0.0222222	 0.0
2.62222 0	 0.0
2.64444 0	 0.0
2.64444 0.0222222	 0.0
2.62222 0.0222222	 0.0
2.64444 0	 0.0
2.66667 0	 0.0
2.66667 0.0222222	 0.0
2.64444 0.0222222	 0.0
2.66667 0	 0.0
2.68889 0	 0.0
2.68889 0.0222222	 0.0
2.66667 0.0222222	 0.0
2.68889 0	 0.0
2.71111 0	 0.0
2.71111 0.0222222	 0.0
2.68889 0.0222222	 0.0
2.71111 0	 0.0
2.73333 0	 0.0
2.73333 0.0222222	 0.0
2.71111 0.0222222	 0.0
2.73333 0	 0.0
2.75556 0	 0.0
2.75556 0.0222222	 0.0
2.73333 0.0222222	 0.0
2.75556 0	 0.0
2.77778 0	 0.0
2.77778 0.0222222	 0.0
2.75556 0.0222222	 0.0
2.77778 0	 0.0
2.8 0	 0.0
2.8 0.0222222	 0.0
2.77778 0.0222222	 0.0
2.8 0	 0.0
2.82222 0	 0.0
2.82222 0.0222222	 0.0
2.8 0.0222222	 0.0
2.82222 0	 0.0
2.84444 0	 0.0
2.84444 0.0222222	 0.0
2.82222 0.0222222	 0.0
2.84444 0	 0.0
2.86667 0	 0.0
2.86667 0.0222222	 0.0
2.84444 0.0222222	 0.0
2.86667 0	 0.0
2.88889 0	 0.0
2.88889 0.0222222	 0.0
2.86667 0.0222222	 0.0
2.88889 0	 0.0
2.91111 0	 0.0
2.91111 0.0222222	 0.0
2.88889 0.0222222	 0.0
2.91111 0	 0.0
[...]
POINT_DATA 23424
SCALARS levelset_first float
LOOKUP_TABLE default
-5.22409
-5.12617
-5.09999
-5.19792
-5.12617
-5.02922
-5.00305
-5.09999
-5.02922
-4.93327
-4.9071
-5.00305
-4.93327
-4.8383
-4.81213
-4.9071
-4.8383
-4.74432
-4.71815
-4.81213
-4.74432
-4.65133
-4.62516
-4.71815
-4.65133
-4.55933
-4.53316
-4.62516
-4.55933
-4.46831
-4.44214
-4.53316
-4.46831
-4.37829
-4.35211
-4.44214
-4.37829
-4.28925
-4.26307
-4.35211
-4.28925
-4.20119
-4.17502
-4.26307
-4.20119
-4.11413
-4.08796
-4.17502
-4.11413
-4.02805
-4.00188
-4.08796
-4.02805
-3.94296
-3.91679
-4.00188
-3.94296
-3.85886
-3.83269
-3.91679
-3.85886
-3.77575
-3.74957
-3.83269
-3.77575
-3.69362
-3.66745
-3.74957
-3.69362
-3.61248
-3.58631
-3.66745
-3.61248
-3.53233
-3.50616
-3.58631
-3.53233
-3.45316
-3.42699
-3.50616
-3.45316
-3.37499
-3.34882
-3.42699
-3.37499
-3.2978
-3.27163
-3.34882
-3.2978
-3.2216
-3.19543
-3.27163
-3.2216
-3.14639
-3.12021
-3.19543
-3.14639
-3.07216
-3.04599
-3.12021
-3.07216
-2.99892
-2.97275
-3.04599
-2.99892
-2.92667
-2.9005
-2.97275
-2.92667
-2.85541
-2.82924
-2.9005
-2.85541
-2.78513
-2.75896
-2.82924
-2.78513
-2.71585
-2.68967
-2.75896
-2.71585
-2.64755
-2.62137
-2.68967
-2.64755
-2.58024
-2.55406
-2.62137
-2.58024
-2.51391
-2.48774
-2.55406
-2.51391
-2.44857
-2.4224
-2.48774
-2.44857
-2.38423
-2.35805
-2.4224
-2.38423
-2.32086
-2.29469
-2.35805
-2.32086
-2.25849
-2.23232
-2.29469
-2.25849
-2.1971
-2.17093
-2.23232
-2.1971
-2.13671
-2.11053
-2.17093
-2.13671
-2.0773
-2.05112
-2.11053
-2.0773
-2.01887
-1.9927
-2.05112
-2.01887
-1.96144
-1.93526
-1.9927
-1.96144
-1.90499
-1.87882
-1.93526
-1.90499
-1.84953
-1.82336
-1.87882
-1.84953
-1.79506
-1.76888
-1.82336
-1.79506
-1.74157
-1.7154
-1.76888
-1.74157
-1.68907
-1.6629
-1.7154
-1.68907
-1.63757
-1.61139
-1.6629
-1.63757
-1.58704
-1.56087
-1.61139
-1.58704
-1.53751
-1.51134
-1.56087
-1.53751
-1.48896
-1.46279
-1.51134
-1.48896
-1.4414
-1.41523
-1.46279
-1.4414
-1.39483
-1.36866
-1.41523
-1.39483
-1.34925
-1.32308
-1.36866
-1.34925
-1.30465
-1.27848
-1.32308
-1.30465
-1.26104
-1.23487
-1.27848
-1.26104
-1.21842
-1.19225
-1.23487
-1.21842
-1.17679
-1.15062
-1.19225
-1.17679
-1.13615
-1.10997
-1.15062
-1.13615
-1.09649
-1.07032
-1.10997
-1.09649
-1.05782
-1.03165
-1.07032
-1.05782
-1.02014
-0.993963
-1.03165
-1.02014
-0.983441
-0.957268
-0.993963
-0.983441
-0.947734
-0.921561
-0.957268
-0.947734
-0.913015
-0.886842
-0.921561
-0.913015
-0.879283
-0.85311
-0.886842
-0.879283
-0.846539
-0.820366
-0.85311
-0.846539
-0.814783
-0.78861
-0.820366
-0.814783
-0.784014
-0.757841
-0.78861
-0.784014
-0.754233
-0.72806
-0.757841
-0.754233
-0.725439
-0.699267
-0.72806
-0.725439
-0.697634
-0.671461
-0.699267
-0.697634
-0.670816
-0.644643
-0.671461
-0.670816
-0.644985
-0.618812
-0.644643
-0.644985
-0.620142
-0.593969
-0.618812
-0.620142
-0.596287
-0.570114
-0.593969
-0.596287
-0.57342
-0.547247
-0.570114
-0.57342
-0.55154
-0.525367
-0.547247
-0.55154
-0.530647
-0.504475
-0.525367
-0.530647
-0.510743
-0.48457
-0.504475
-0.510743
-0.491826
-0.465653
-0.48457
-0.491826
-0.473897
-0.447724
-0.465653
-0.473897
-0.456955
-0.430782
-0.447724
-0.456955
-0.441001
-0.414828
-0.430782
-0.441001
-0.426035
-0.399862
-0.414828
-0.426035
-0.412056
-0.385884
-0.399862
-0.412056
-0.399065
-0.372893
-0.385884
-0.399065
-0.387062
-0.360889
-0.372893
-0.387062
-0.376046
-0.349874
-0.360889
-0.376046
-0.366018
-0.339846
-0.349874
-0.366018
-0.356978
-0.330805
-0.339846
-0.356978
-0.348925
-0.322753
-0.330805
-0.348925
-0.34186
-0.315687
-0.322753
-0.34186
-0.335783
-0.30961
-0.315687
-0.335783
-0.330693
-0.30452
-0.30961
-0.330693
-0.326591
-0.300418
-0.30452
-0.326591
-0.323477
-0.297304
-0.300418
-0.323477
-0.32135
-0.295177
-0.297304
-0.32135
-0.320211
-0.294038
-0.295177
-0.320211
-0.320059
-0.293886
-0.294038
-0.320059
-0.320896
-0.294723
-0.293886
-0.320896
-0.322719
-0.296547
-0.294723
-0.322719
-0.325531
-0.299358
-0.296547
-0.325531
-0.32933
-0.303157
-0.299358
-0.32933
-0.334117
-0.307944
-0.303157
-0.334117
-0.339891
-0.313718
-0.307944
-0.339891
-0.346653
-0.320481
-0.313718
-0.346653
-0.354403
-0.32823
-0.320481
-0.354403
-0.363141
-0.336968
-0.32823
-0.363141
-0.372866
-0.346693
-0.336968
-0.372866
-0.383578
-0.357406
-0.346693
-0.383578
-0.395279
-0.369106
-0.357406
-0.395279
-0.407967
-0.381794
-0.369106
-0.407967
-0.421643
-0.39547
-0.381794
-0.421643
-0.436306
-0.410133
-0.39547
-0.436306
-0.451957
-0.425784
-0.410133
-0.451957
-0.468596
-0.442423
-0.425784
-0.468596
-0.486222
-0.460049
-0.442423
-0.486222
-0.504836
-0.478663
-0.460049
-0.504836
-0.524437
-0.498265
-0.478663
-0.524437
-0.545027
-0.518854
-0.498265
-0.545027
-0.566604
-0.540431
-0.518854
-0.566604
-0.589168
-0.562995
-0.540431
-0.589168
-0.612721
-0.586548
-0.562995
-0.612721
-0.63726
-0.611088
-0.586548
-0.63726
-0.662788
-0.636615
-0.611088
-0.662788
-0.689303
-0.66313
-0.636615
-0.689303
-0.716806
-0.690633
-0.66313
-0.716806
-0.745297
-0.719124
-0.690633
-0.745297
-0.774775
-0.748602
-0.719124
-0.774775
-0.805241
-0.779068
-0.748602
-0.805241
-0.836694
-0.810521
-0.779068
-0.836694
-0.869135
-0.842962
-0.810521
-0.869135
-0.902564
-0.876391
-0.842962
-0.902564
-0.93698
-0.910808
-0.876391
-5.19792
-5.09999
-5.07481
-5.17274
-5.09999
-5.00305
-4.97787
-5.07481
-5.00305
-4.9071
-4.88191
-4.97787
-4.9071
-4.81213
-4.78695
-4.88191
-4.81213
-4.71815
-4.69297
-4.78695
-4.71815
-4.62516
-4.59998
-4.69297
-4.62516
-4.53316
-4.50797
-4.59998
-4.53316
-4.44214
-4.41696
-4.50797
-4.44214
-4.35211
-4.32693
-4.41696
-4.35211
-4.26307
-4.23789
-4.32693
-4.26307
-4.17502
-4.14984
-4.23789
-4.17502
-4.08796
-4.06277
-4.14984
-4.08796
-4.00188
-3.97669
-4.06277
-4.00188
-3.91679
-3.8916
-3.97669
-3.91679
-3.83269
-3.8075
-3.8916
-3.83269
-3.74957
-3.72439
-3.8075
-3.74957
-3.66745
-3.64226
-3.72439
-3.66745
-3.58631
-3.56112
-3.64226
-3.58631
-3.50616
-3.48097
-3.56112
-3.50616
-3.42699
-3.40181
-3.48097
-3.42699
-3.34882
-3.32363
-3.40181
-3.34882
-3.27163
-3.24644
-3.32363
-3.27163
-3.19543
-3.17024
-3.24644
-3.19543
-3.12021
-3.09503
-3.17024
-3.12021
-3.04599
-3.0208
-3.09503
-3.04599
-2.97275
-2.94756
-3.0208
-2.97275
-2.9005
-2.87531
-2.94756
-2.9005
-2.82924
-2.80405
-2.87531
-2.82924
-2.75896
-2.73378
-2.80405
-2.75896
-2.68967
-2.66449
-2.73378
-2.68967
-2.62137
-2.59619
-2.66449
-2.62137
-2.55406
-2.52888
-2.59619
-2.55406
-2.48774
-2.46255
-2.52888
-2.48774
-2.4224
-2.39722
-2.46255
-2.4224
-2.35805
-2.33287
-2.39722
-2.35805
-2.29469
-2.26951
-2.33287
-2.29469
-2.23232
-2.20713
-2.26951
-2.23232
-2.17093
-2.14575
-2.20713
-2.17093
-2.11053
-2.08535
-2.14575
-2.11053
-2.05112
-2.02594
-2.08535
-2.05112
-1.9927
-1.96751
-2.02594
-1.9927
-1.93526
-1.91008
-1.96751
-1.93526
-1.87882
-1.85363
-1.91008
-1.87882
-1.82336
-1.79817
-1.85363
-1.82336
-1.76888
-1.7437
-1.79817
-1.76888
-1.7154
-1.69021
-1.7437
-1.7154
-1.6629
-1.63772
-1.69021
-1.6629
-1.61139
-1.58621
-1.63772
-1.61139
-1.56087
-1.53569
-1.58621
-1.56087
-1.51134
-1.48615
-1.53569
-1.51134
-1.46279
-1.4376
-1.48615
-1.46279
-1.41523
-1.39005
-1.4376
-1.41523
-1.36866
-1.34347
-1.39005
-1.36866
-1.32308
-1.29789
-1.34347
-1.32308
-1.27848
-1.25329
-1.29789
-1.27848
-1.23487
-1.20969
-1.25329
-1.23487
-1.19225
-1.16707
-1.20969
-1.19225
-1.15062
-1.12543
-1.16707
-1.15062
-1.10997
-1.08479
-1.12543
-1.10997
-1.07032
-1.04513
-1.08479
-1.07032
-1.03165
-1.00646
-1.04513
-1.03165
-0.993963
-0.968778
-1.00646
-0.993963
-0.957268
-0.932083
-0.968778
-0.957268
-0.921561
-0.896376
-0.932083
-0.921561
-0.886842
-0.861657
-0.896376
-0.886842
-0.85311
-0.827925
-0.861657
-0.85311
-0.820366
-0.795181
-0.827925
-0.820366
-0.78861
-0.763425
-0.795181
-0.78861
-0.757841
-0.732656
-0.763425
-0.757841
-0.72806
-0.702875
-0.732656
-0.72806
-0.699267
-0.674081
-0.702875
-0.699267
-0.671461
-0.646276
-0.674081
-0.671461
-0.644643
-0.619457
-0.646276
-0.644643
-0.618812
-0.593627
-0.619457
-0.618812
-0.593969
-0.568784
-0.593627
-0.593969
-0.570114
-0.544929
-0.568784
-0.570114
-0.547247
-0.522062
-0.544929
-0.547247
-0.525367
-0.500182
-0.522062
-0.525367
-0.504475
-0.479289
-0.500182
-0.504475
-0.48457
-0.459385
-0.479289
-0.48457
-0.465653
-0.440468
-0.459385
-0.465653
-0.447724
-0.422539
-0.440468
-0.447724
-0.430782
-0.405597
-0.422539
-0.430782
-0.414828
-0.389643
-0.405597
-0.414828
-0.399862
-0.374677
-0.389643
-0.399862
-0.385884
-0.360698
-0.374677
-0.385884
-0.372893
-0.347707
-0.360698
-0.372893
-0.360889
-0.335704
-0.347707
-0.360889
-0.349874
-0.324688
-0.335704
-0.349874
-0.339846
-0.31466
-0.324688
-0.339846
-0.330805
-0.30562
-0.31466
-0.330805
-0.322753
-0.297567
-0.30562
-0.322753
-0.315687
-0.290502
-0.297567
-0.315687
-0.30961
-0.284425
-0.290502
-0.30961
-0.30452
-0.279335
-0.284425
-0.30452
-0.300418
-0.275233
-0.279335
-0.300418
-0.297304
-0.272119
-0.275233
-0.297304
-0.295177
-0.269992
-0.272119
-0.295177
-0.294038
-0.268853
-0.269992
-0.294038
-0.293886
-0.268701
-0.268853
-0.293886
-0.294723
-0.269538
-0.268701
-0.294723
-0.296547
-0.271361
-0.269538
-0.296547
-0.299358
-0.274173
-0.271361
-0.299358
-0.303157
-0.277972
-0.274173
-0.303157
-0.307944
-0.282759
-0.277972
-0.307944
-0.313718
-0.288533
-0.282759
-0.313718
-0.320481
-0.295295
-0.288533
-0.320481
-0.32823
-0.303045
-0.295295
-0.32823
-0.336968
-0.311783
-0.303045
-0.336968
-0.346693
-0.321508
-0.311783
-0.346693
-0.357406
-0.33222
-0.321508
-0.357406
-0.369106
-0.343921
-0.33222
-0.369106
-0.381794
-0.356609
-0.343921
-0.381794
-0.39547
-0.370285
-0.356609
-0.39547
-0.410133
-0.384948
-0.370285
-0.410133
-0.425784
-0.400599
-0.384948
-0.425784
-0.442423
-0.417238
-0.400599
-0.442423
-0.460049
-0.434864
-0.417238
-0.460049
-0.478663
-0.453478
-0.434864
-0.478663
-0.498265
-0.473079
-0.453478
-0.498265
-0.518854
-0.493669
-0.473079
-0.518854
-0.540431
-0.515246
-0.493669
-0.540431
-0.562995
-0.53781
-0.515246
-0.562995
-0.586548
-0.561362
-0.53781
-0.586548
-0.611088
-0.585902
-0.561362
-0.611088
-0.636615
-0.61143
-0.585902
-0.636615
-0.66313
-0.637945
-0.61143
-0.66313
-0.690633
-0.665448
-0.637945
-0.690633
-0.719124
-0.693939
-0.665448
-0.719124
-0.748602
-0.723417
-0.693939
-0.748602
-0.779068
-0.753882
-0.723417
-0.779068
-0.810521
-0.785336
-0.753882
-0.810521
-0.842962
-0.817777
-0.785336
-0.842962
-0.876391
-0.851206
-0.817777
-0.876391
-0.910808
-0.885622
-0.851206
-5.17274
-5.07481
-5.05061
-5.14854
-5.07481
-4.97787
-4.95367
-5.05061
-4.97787
-4.88191
-4.85771
-4.95367
-4.88191
-4.78695
-4.76275
-4.85771
-4.78695
-4.69297
-4.66877
-4.76275
-4.69297
-4.59998
-4.57578
-4.66877
-4.59998
-4.50797
-4.48378
-4.57578
-4.50797
-4.41696
-4.39276
-4.48378
-4.41696
-4.32693
-4.30273
-4.39276
-4.32693
-4.23789
-4.21369
-4.30273
-4.23789
-4.14984
-4.12564
-4.21369
-4.14984
-4.06277
-4.03857
-4.12564
-4.06277
-3.97669
-3.9525
-4.03857
-3.97669
-3.8916
-3.86741
-3.9525
-3.8916
-3.8075
-3.7833
-3.86741
-3.8075
-3.72439
-3.70019
-3.7833
-3.72439
-3.64226
-3.61806
-3.70019
-3.64226
-3.56112
-3.53692
-3.61806
-3.56112
-3.48097
-3.45677
-3.53692
-3.48097
-3.40181
-3.37761
-3.45677
-3.40181
-3.32363
-3.29943
-3.37761
-3.32363
-3.24644
-3.22224
-3.29943
-3.24644
-3.17024
-3.14604
-3.22224
-3.17024
-3.09503
-3.07083
-3.14604
-3.09503
-3.0208
-2.9966
-3.07083
-3.0208
-2.94756
-2.92337
-2.9966
-2.94756
-2.87531
-2.85112
-2.92337
-2.87531
-2.80405
-2.77985
-2.85112
-2.80405
-2.73378
-2.70958
-2.77985
-2.73378
-2.66449
-2.64029
-2.70958
-2.66449
-2.59619
-2.57199
-2.64029
-2.59619
-2.52888
-2.50468
-2.57199
-2.52888
-2.46255
-2.43836
-2.50468
-2.46255
-2.39722
-2.37302
-2.43836
-2.39722
-2.33287
-2.30867
-2.37302
-2.33287
-2.26951
-2.24531
-2.30867
-2.26951
-2.20713
-2.18293
-2.24531
-2.20713
-2.14575
-2.12155
-2.18293
-2.14575
-2.08535
-2.06115
-2.12155
-2.08535
-2.02594
-2.00174
-2.06115
-2.02594
-1.96751
-1.94332
-2.00174
-1.96751
-1.91008
-1.88588
-1.94332
-1.91008
-1.85363
-1.82943
-1.88588
-1.85363
-1.79817
-1.77397
-1.82943
-1.79817
-1.7437
-1.7195
-1.77397
-1.7437
-1.69021
-1.66602
-1.7195
-1.69021
-1.63772
-1.61352
-1.66602
-1.63772
-1.58621
-1.56201
-1.61352
-1.58621
-1.53569
-1.51149
-1.56201
-1.53569
-1.48615
-1.46195
-1.51149
-1.48615
-1.4376
-1.41341
-1.46195
-1.4376
-1.39005
-1.36585
-1.41341
-1.39005
-1.34347
-1.31928
-1.36585
-1.34347
-1.29789
-1.27369
-1.31928
-1.29789
-1.25329
-1.2291
-1.27369
-1.25329
-1.20969
-1.18549
-1.2291
-1.20969
-1.16707
-1.14287
-1.18549
-1.16707
-1.12543
-1.10124
-1.14287
-1.12543
-1.08479
-1.06059
-1.10124
-1.08479
-1.04513
-1.02093
-1.06059
-1.04513
-1.00646
-0.982263
-1.02093
-1.00646
-0.968778
-0.94458
-0.982263
-0.968778
-0.932083
-0.907886
-0.94458
-0.932083
-0.896376
-0.872179
-0.907886
-0.896376
-0.861657
-0.837459
-0.872179
-0.861657
-0.827925
-0.803728
-0.837459
-0.827925
-0.795181
-0.770984
-0.803728
-0.795181
-0.763425
-0.739227
-0.770984
-0.763425
-0.732656
-0.708458
-0.739227
-0.732656
-0.702875
-0.678677
-0.708458
-0.702875
-0.674081
-0.649884
-0.678677
-0.674081
-0.646276
-0.622078
-0.649884
-0.646276
-0.619457
-0.59526
-0.622078
-0.619457
-0.593627
-0.569429
-0.59526
-0.593627
-0.568784
-0.544587
-0.569429
-0.568784
-0.544929
-0.520731
-0.544587
-0.544929
-0.522062
-0.497864
-0.520731
-0.522062
-0.500182
-0.475984
-0.497864
-0.500182
-0.479289
-0.455092
-0.475984
-0.479289
-0.459385
-0.435187
-0.455092
-0.459385
-0.440468
-0.41627
-0.435187
-0.440468
-0.422539
-0.398341
-0.41627
-0.422539
-0.405597
-0.3814
-0.398341
-0.405597
-0.389643
-0.365446
-0.3814
-0.389643
-0.374677
-0.350479
-0.365446
-0.374677
-0.360698
-0.336501
-0.350479
-0.360698
-0.347707
-0.32351
-0.336501
-0.347707
-0.335704
-0.311507
-0.32351
-0.335704
-0.324688
-0.300491
-0.311507
-0.324688
-0.31466
-0.290463
-0.300491
-0.31466
-0.30562
-0.281423
-0.290463
-0.30562
-0.297567
-0.27337
-0.281423
-0.297567
-0.290502
-0.266305
-0.27337
-0.290502
-0.284425
-0.260227
-0.266305
-0.284425
-0.279335
-0.255138
-0.260227
-0.279335
-0.275233
-0.251036
-0.255138
-0.275233
-0.272119
-0.247921
-0.251036
-0.272119
-0.269992
-0.245794
-0.247921
-0.269992
-0.268853
-0.244655
-0.245794
-0.268853
-0.268701
-0.244504
-0.244655
-0.268701
-0.269538
-0.24534
-0.244504
-0.269538
-0.271361
-0.247164
-0.24534
-0.271361
-0.274173
-0.249975
-0.247164
-0.274173
-0.277972
-0.253774
-0.249975
-0.277972
-0.282759
-0.258561
-0.253774
-0.282759
-0.288533
-0.264336
-0.258561
-0.288533
-0.295295
-0.271098
-0.264336
-0.295295
-0.303045
-0.278848
-0.271098
-0.303045
-0.311783
-0.287585
-0.278848
-0.311783
-0.321508
-0.29731
-0.287585
-0.321508
-0.33222
-0.308023
-0.29731
-0.33222
-0.343921
-0.319723
-0.308023
-0.343921
-0.356609
-0.332411
-0.319723
-0.356609
-0.370285
-0.346087
-0.332411
-0.370285
-0.384948
-0.36075
-0.346087
-0.384948
-0.400599
-0.376401
-0.36075
-0.400599
-0.417238
-0.39304
-0.376401
-0.417238
-0.434864
-0.410666
-0.39304
-0.434864
-0.453478
-0.42928
-0.410666
-0.453478
-0.473079
-0.448882
-0.42928
-0.473079
-0.493669
-0.469471
-0.448882
-0.493669
-0.515246
-0.491048
-0.469471
-0.515246
-0.53781
-0.513613
-0.491048
-0.53781
-0.561362
-0.537165
-0.513613
-0.561362
-0.585902
-0.561705
-0.537165
-0.585902
-0.61143
-0.587232
-0.561705
-0.61143
-0.637945
-0.613748
-0.587232
-0.637945
-0.665448
-0.64125
-0.613748
-0.665448
-0.693939
-0.669741
-0.64125
-0.693939
-0.723417
-0.699219
-0.669741
-0.723417
-0.753882
-0.729685
-0.699219
-0.753882
-0.785336
-0.761138
-0.729685
-0.785336
-0.817777
-0.79358
-0.761138
-0.817777
-0.851206
-0.827008
-0.79358
-0.851206
-0.885622
-0.861425
-0.827008
-5.14854
-5.05061
-5.0274
-5.12533
-5.05061
-4.95367
-4.93046
-5.0274
-4.95367
-4.85771
-4.8345
-4.93046
-4.85771
-4.76275
-4.73954
-4.8345
-4.76275
-4.66877
-4.64556
-4.73954
-4.66877
-4.57578
-4.55257
-4.64556
-4.57578
-4.48378
-4.46057
-4.55257
-4.48378
-4.39276
-4.36955
-4.46057
-4.39276
-4.30273
-4.27952
-4.36955
-4.30273
-4.21369
-4.19048
-4.27952
-4.21369
-4.12564
-4.10243
-4.19048
-4.12564
-4.03857
-4.01536
-4.10243
-4.03857
-3.9525
-3.92929
-4.01536
-3.9525
-3.86741
-3.8442
-3.92929
-3.86741
-3.7833
-3.76009
-3.8442
-3.7833
-3.70019
-3.67698
-3.76009
-3.70019
-3.61806
-3.59485
-3.67698
-3.61806
-3.53692
-3.51371
-3.59485
-3.53692
-3.45677
-3.43356
-3.51371
-3.45677
-3.37761
-3.3544
-3.43356
-3.37761
-3.29943
-3.27622
-3.3544
-3.29943
-3.22224
-3.19903
-3.27622
-3.22224
-3.14604
-3.12283
-3.19903
-3.14604
-3.07083
-3.04762
-3.12283
-3.07083
-2.9966
-2.97339
-3.04762
-2.9966
-2.92337
-2.90016
-2.97339
-2.92337
-2.85112
-2.82791
-2.90016
-2.85112
-2.77985
-2.75664
-2.82791
-2.77985
-2.70958
-2.68637
-2.75664
-2.70958
-2.64029
-2.61708
-2.68637
-2.64029
-2.57199
-2.54878
-2.61708
-2.57199
-2.50468
-2.48147
-2.54878
-2.50468
-2.43836
-2.41515
-2.48147
-2.43836
-2.37302
-2.34981
-2.41515
-2.37302
-2.30867
-2.28546
-2.34981
-2.30867
-2.24531
-2.2221
-2.28546
-2.24531
-2.18293
-2.15972
-2.2221
-2.18293
-2.12155
-2.09834
-2.15972
-2.12155
-2.06115
-2.03794
-2.09834
-2.06115
-2.00174
-1.97853
-2.03794
-2.00174
-1.94332
-1.92011
-1.97853
-1.94332
-1.88588
-1.86267
-1.92011
-1.88588
-1.82943
-1.80622
-1.86267
-1.82943
-1.77397
-1.75076
-1.80622
-1.77397
-1.7195
-1.69629
-1.75076
-1.7195
-1.66602
-1.64281
-1.69629
-1.66602
-1.61352
-1.59031
-1.64281
-1.61352
-1.56201
-1.5388
-1.59031
-1.56201
-1.51149
-1.48828
-1.5388
-1.51149
-1.46195
-1.43874
-1.48828
-1.46195
-1.41341
-1.3902
-1.43874
-1.41341
-1.36585
-1.34264
-1.3902
-1.36585
-1.31928
-1.29607
-1.34264
-1.31928
-1.27369
-1.25048
-1.29607
-1.27369
-1.2291
-1.20589
-1.25048
-1.2291
-1.18549
-1.16228
-1.20589
-1.18549
-1.14287
-1.11966
-1.16228
-1.14287
-1.10124
-1.07803
-1.11966
-1.10124
-1.06059
-1.03738
-1.07803
-1.06059
-1.02093
-0.997723
-1.03738
-1.02093
-0.982263
-0.959053
-0.997723
-0.982263
-0.94458
-0.92137
-0.959053
-0.94458
-0.907886
-0.884676
-0.92137
-0.907886
-0.872179
-0.848969
-0.884676
-0.872179
-0.837459
-0.814249
-0.848969
-0.837459
-0.803728
-0.780518
-0.814249
-0.803728
-0.770984
-0.747774
-0.780518
-0.770984
-0.739227
-0.716017
-0.747774
-0.739227
-0.708458
-0.685249
-0.716017
-0.708458
-0.678677
-0.655467
-0.685249
-0.678677
-0.649884
-0.626674
-0.655467
-0.649884
-0.622078
-0.598868
-0.626674
-0.622078
-0.59526
-0.57205
-0.598868
-0.59526
-0.569429
-0.54622
-0.57205
-0.569429
-0.544587
-0.521377
-0.54622
-0.544587
-0.520731
-0.497522
-0.521377
-0.520731
-0.497864
-0.474654
-0.497522
-0.497864
-0.475984
-0.452774
-0.474654
-0.475984
-0.455092
-0.431882
-0.452774
-0.455092
-0.435187
-0.411977
-0.431882
-0.435187
-0.41627
-0.393061
-0.411977
-0.41627
-0.398341
-0.375131
-0.393061
-0.398341
-0.3814
-0.35819
-0.375131
-0.3814
-0.365446
-0.342236
-0.35819
-0.365446
-0.350479
-0.32727
-0.342236
-0.350479
-0.336501
-0.313291
-0.32727
-0.336501
-0.32351
-0.3003
-0.313291
-0.32351
-0.311507
-0.288297
-0.3003
-0.311507
-0.300491
-0.277281
-0.288297
-0.300491
-0.290463
-0.267253
-0.277281
-0.290463
-0.281423
-0.258213
-0.267253
-0.281423
-0.27337
-0.25016
-0.258213
-0.27337
-0.266305
-0.243095
-0.25016
-0.266305
-0.260227
-0.237018
-0.243095
-0.260227
-0.255138
-0.231928
-0.237018
-0.255138
-0.251036
-0.227826
-0.231928
-0.251036
-0.247921
-0.224711
-0.227826
-0.247921
-0.245794
-0.222584
-0.224711
-0.245794
-0.244655
-0.221445
-0.222584
-0.244655
-0.244504
-0.221294
-0.221445
-0.244504
-0.24534
-0.22213
-0.221294
-0.24534
-0.247164
-0.223954
-0.22213
-0.247164
-0.249975
-0.226765
-0.223954
-0.249975
-0.253774
-0.230565
-0.226765
-0.253774
-0.258561
-0.235351
-0.230565
-0.258561
-0.264336
-0.241126
-0.235351
-0.264336
-0.271098
-0.247888
-0.241126
-0.271098
-0.278848
-0.255638
-0.247888
-0.278848
-0.287585
-0.264375
-0.255638
-0.287585
-0.29731
-0.2741
-0.264375
-0.29731
-0.308023
-0.284813
-0.2741
-0.308023
-0.319723
-0.296513
-0.284813
-0.319723
-0.332411
-0.309201
-0.296513
-0.332411
-0.346087
-0.322877
-0.309201
-0.346087
-0.36075
-0.33754
-0.322877
-0.36075
-0.376401
-0.353191
-0.33754
-0.376401
-0.39304
-0.36983
-0.353191
-0.39304
-0.410666
-0.387456
-0.36983
-0.410666
-0.42928
-0.40607
-0.387456
-0.42928
-0.448882
-0.425672
-0.40607
-0.448882
-0.469471
-0.446261
-0.425672
-0.469471
-0.491048
-0.467838
-0.446261
-0.491048
-0.513613
-0.490403
-0.467838
-0.513613
-0.537165
-0.513955