# vtk DataFile Version 1.0
unstructured Grid
ASCII
DATASET UNSTRUCTURED_GRID
POINTS 23448 float 
0 0	 0.0
0.0222222 0	 0.0
0.0222222 0.0222222	 0.0
0 0.0222222	 0.0
0.0222222 0	 0.0
0.0444444 0	 0.0
0.0444444 0.0222222	 0.0
0.0222222 0.0222222	 0.0
0.0444444 0	 0.0
0.0666667 0	 0.0
0.0666667 0.0222222	 0.0
0.0444444 0.0222222	 0.0
0.0666667 0	 0.0
0.0888889 0	 0.0
0.0888889 0.0222222	 0.0
0.0666667 0.0222222	 0.0
0.0888889 0	 0.0
0.111111 0	 0.0
0.111111 0.0222222	 0.0
0.0888889 0.0222222	 0.0
0.111111 0	 0.0
0.133333 0	 0.0
0.133333 0.0222222	 0.0
0.111111 0.0222222	 0.0
0.133333 0	 0.0
0.155556 0	 0.0
0.155556 0.0222222	 0.0
0.133333 0.0222222	 0.0
0.155556 0	 0.0
0.177778 0	 0.0
0.177778 0.0222222	 0.0
0.155556 0.0222222	 0.0
0.177778 0	 0.0
0.2 0	 0.0
0.2 0.0222222	 0.0
0.177778 0.0222222	 0.0
0.2 0	 0.0
0.222222 0	 0.0
0.222222 0.0222222	 0.0
0.2 0.0222222	 0.0
0.222222 0	 0.0
0.244444 0	 0.0
0.244444 0.0222222	 0.0
0.222222 0.0222222	 0.0
0.244444 0	 0.0
0.266667 0	 0.0
0.266667 0.0222222	 0.0
0.244444 0.0222222	 0.0
0.266667 0	 0.0
0.288889 0	 0.0
0.288889 0.0222222	 0.0
0.266667 0.0222222	 0.0
0.288889 0	 0.0
0.311111 0	 0.0
0.311111 0.0222222	 0.0
0.288889 0.0222222	 0.0
0.311111 0	 0.0
0.333333 0	 0.0
0.333333 0.0222222	 0.0
0.311111 0.0222222	 0.0
0.333333 0	 0.0
0.355556 0	 0.0
0.355556 0.0222222	 0.0
0.333333 0.0222222	 0.0
0.355556 0	 0.0
0.377778 0	 0.0
0.377778 0.0222222	 0.0
0.355556 0.0222222	 0.0
0.377778 0	 0.0
0.4 0	 0.0
0.4 0.0222222	 0.0
0.377778 0.0222222	 0.0
0.4 0	 0.0
0.422222 0	 0.0
0.422222 0.0222222	 0.0
0.4 0.0222222	 0.0
0.422222 0	 0.0
0.444444 0	 0.0
0.444444 0.0222222	 0.0
0.422222 0.0222222	 0.0
0.444444 0	 0.0
0.466667 0	 0.0
0.466667 0.0222222	 0.0
0.444444 0.0222222	 0.0
0.466667 0	 0.0
0.488889 0	 0.0
0.488889 0.0222222	 0.0
0.466667 0.0222222	 0.0
0.488889 0	 0.0
0.511111 0	 0.0
0.511111 0.0222222	 0.0
0.488889 0.0222222	 0.0
0.511111 0	 0.0
0.533333 0	 0.0
0.533333 0.0222222	 0.0
0.511111 0.0222222	 0.0
0.533333 0	 0.0
0.555556 0	 0.0
0.555556 0.0222222	 0.0
0.533333 0.0222222	 0.0
0.555556 0	 0.0
0.577778 0	 0.0
0.577778 0.0222222	 0.0
0.555556 0.0222222	 0.0
0.577778 0	 0.0
0.6 0	 0.0
0.6 0.0222222	 0.0
0.577778 0.0222222	 0.0
0.6 0	 0.0
0.622222 0	 0.0
0.622222 0.0222222	 0.0
0.6 0.0222222	 0.0
0.622222 0	 0.0
0.644444 0	 0.0
0.644444 0.0222222	 0.0
0.622222 0.0222222	 0.0
0.644444 0	 0.0
0.666667 0	 0.0
0.666667 0.0222222	 0.0
0.644444 0.0222222	 0.0
0.666667 0	 0.0
0.688889 0	 0.0
0.688889 0.0222222	 0.0
0.666667 0.0222222	 0.0
0.688889 0	 0.0
0.711111 0	 0.0
0.711111 0.0222222	 0.0
0.688889 0.0222222	 0.0
0.711111 0	 0.0
0.733333 0	 0.0
0.733333 0.0222222	 0.0
0.711111 0.0222222	 0.0
0.733333 0	 0.0
0.755556 0	 0.0
0.755556 0.0222222	 0.0
0.733333 0.0222222	 0.0
0.755556 0	 0.0
0.777778 0	 0.0
0.777778 0.0222222	 0.0
0.755556 0.0222222	 0.0
0.777778 0	 0.0
0.8 0	 0.0
0.8 0.0222222	 0.0
0.777778 0.0222222	 0.0
0.8 0	 0.0
0.822222 0	 0.0
0.822222 0.0222222	 0.0
0.8 0.0222222	 0.0
0.822222 0	 0.0
0.844444 0	 0.0
0.844444 0.0222222	 0.0
0.822222 0.0222222	 0.0
0.844444 0	 0.0
0.866667 0	 0.0
0.866667 0.0222222	 0.0
0.844444 0.0222222	 0.0
0.866667 0	 0.0
0.888889 0	 0.0
0.888889 0.0222222	 0.0
0.866667 0.0222222	 0.0
0.888889 0	 0.0
0.911111 0	 0.0
0.911111 0.0222222	 0.0
0.888889 0.0222222	 0.0
0.911111 0	 0.0
0.933333 0	 0.0
0.933333 0.0222222	 0.0
0.911111 0.0222222	 0.0
0.933333 0	 0.0
0.955556 0	 0.0
0.955556 0.0222222	 0.0
0.933333 0.0222222	 0.0
0.955556 0	 0.0
0.977778 0	 0.0
0.977778 0.0222222	 0.0
0.955556 0.0222222	 0.0
0.977778 0	 0.0
1 0	 0.0
1 0.0222222	 0.0
0.977778 0.0222222	 0.0
1 0	 0.0
1.02222 0	 0.0
1.02222 0.0222222	 0.0
1 0.0222222	 0.0
1.02222 0	 0.0
1.04444 0	 0.0
1.04444 0.0222222	 0.0
1.02222 0.0222222	 0.0
1.04444 0	 0.0
1.06667 0	 0.0
1.06667 0.0222222	 0.0
1.04444 0.0222222	 0.0
1.06667 0	 0.0
1.08889 0	 0.0
1.08889 0.0222222	 0.0
1.06667 0.0222222	 0.0
1.08889 0	 0.0
1.11111 0	 0.0
1.11111 0.0222222	 0.0
1.08889 0.0222222	 0.0
1.11111 0	 0.0
1.13333 0	 0.0
1.13333 0.0222222	 0.0
1.11111 0.0222222	 0.0
1.13333 0	 0.0
1.15556 0	 0.0
1.15556 0.0222222	 0.0
1.13333 0.0222222	 0.0
1.15556 0	 0.0
1.17778 0	 0.0
1.17778 0.0222222	 0.0
1.15556 0.0222222	 0.0
1.17778 0	 0.0
1.2 0	 0.0
1.2 0.0222222	 0.0
1.17778 0.0222222	 0.0
1.2 0	 0.0
1.22222 0	 0.0
1.22222 0.0222222	 0.0
1.2 0.0222222	 0.0
1.22222 0	 0.0
1.24444 0	 0.0
1.24444 0.0222222	 0.0
1.22222 0.0222222	 0.0
1.24444 0	 0.0
1.26667 0	 0.0
1.26667 0.0222222	 0.0
1.24444 0.0222222	 0.0
1.26667 0	 0.0
1.28889 0	 0.0
1.28889 0.0222222	 0.0
1.26667 0.0222222	 0.0
1.28889 0	 0.0
1.31111 0	 0.0
1.31111 0.0222222	 0.0
1.28889 0.0222222	 0.0
1.31111 0	 0.0
1.33333 0	 0.0
1.33333 0.0222222	 0.0
1.31111 0.0222222	 0.0
1.33333 0	 0.0
1.35556 0	 0.0
1.35556 0.0222222	 0.0
1.33333 0.0222222	 0.0
1.35556 0	 0.0
1.37778 0	 0.0
1.37778 0.0222222	 0.0
1.35556 0.0222222	 0.0
1.37778 0	 0.0
1.4 0	 0.0
1.4 0.0222222	 0.0
1.37778 0.0222222	 0.0
1.4 0	 0.0
1.42222 0	 0.0
1.42222 0.0222222	 0.0
1.4 0.0222222	 0.0
1.42222 0	 0.0
1.44444 0	 0.0
1.44444 0.0222222	 0.0
1.42222 0.0222222	 0.0
1.44444 0	 0.0
1.46667 0	 0.0
1.46667 0.0222222	 0.0
1.44444 0.0222222	 0.0
1.46667 0	 0.0
1.48889 0	 0.0
1.48889 0.0222222	 0.0
1.46667 0.0222222	 0.0
1.48889 0	 0.0
1.51111 0	 0.0
1.51111 0.0222222	 0.0
1.48889 0.0222222	 0.0
1.51111 0	 0.0
1.53333 0	 0.0
1.53333 0.0222222	 0.0
1.51111 0.0222222	 0.0
1.53333 0	 0.0
1.55556 0	 0.0
1.55556 0.0222222	 0.0
1.53333 0.0222222	 0.0
1.55556 0	 0.0
1.57778 0	 0.0
1.57778 0.0222222	 0.0
1.55556 0.0222222	 0.0
1.57778 0	 0.0
1.6 0	 0.0
1.6 0.0222222	 0.0
1.57778 0.0222222	 0.0
1.6 0	 0.0
1.62222 0	 0.0
1.62222 0.0222222	 0.0
1.6 0.0222222	 0.0
1.62222 0	 0.0
1.64444 0	 0.0
1.64444 0.0222222	 0.0
1.62222 0.0222222	 0.0
1.64444 0	 0.0
1.66667 0	 0.0
1.66667 0.0222222	 0.0
1.64444 0.0222222	 0.0
1.66667 0	 0.0
1.68889 0	 0.0
1.68889 0.0222222	 0.0
1.66667 0.0222222	 0.0
1.68889 0	 0.0
1.71111 0	 0.0
1.71111 0.0222222	 0.0
1.68889 0.0222222	 0.0
1.71111 0	 0.0
1.73333 0	 0.0
1.73333 0.0222222	 0.0
1.71111 0.0222222	 0.0
1.73333 0	 0.0
1.75556 0	 0.0
1.75556 0.0222222	 0.0
1.73333 0.0222222	 0.0
1.75556 0	 0.0
1.77778 0	 0.0
1.77778 0.0222222	 0.0
1.75556 0.0222222	 0.0
1.77778 0	 0.0
1.8 0	 0.0
1.8 0.0222222	 0.0
1.77778 0.0222222	 0.0
1.8 0	 0.0
1.82222 0	 0.0
1.82222 0.0222222	 0.0
1.8 0.0222222	 0.0
1.82222 0	 0.0
1.84444 0	 0.0
1.84444 0.0222222	 0.0
1.82222 0.0222222	 0.0
1.84444 0	 0.0
1.86667 0	 0.0
1.86667 0.0222222	 0.0
1.84444 0.0222222	 0.0
1.86667 0	 0.0
1.88889 0	 0.0
1.88889 0.0222222	 0.0
1.86667 0.0222222	 0.0
1.88889 0	 0.0
1.91111 0	 0.0
1.91111 0.0222222	 0.0
1.88889 0.0222222	 0.0
1.91111 0	 0.0
1.93333 0	 0.0
1.93333 0.0222222	 0.0
1.91111 0.0222222	 0.0
1.93333 0	 0.0
1.95556 0	 0.0
1.95556 0.0222222	 0.0
1.93333 0.0222222	 0.0
1.95556 0	 0.0
1.97778 0	 0.0
1.97778 0.0222222	 0.0
1.95556 0.0222222	 0.0
1.97778 0	 0.0
2 0	 0.0
2 0.0222222	 0.0
1.97778 0.0222222	 0.0
2 0	 0.0
2.02222 0	 0.0
2.02222 0.0222222	 0.0
2 0.0222222	 0.0
2.02222 0	 0.0
2.04444 0	 0.0
2.04444 0.0222222	 0.0
2.02222 0.0222222	 0.0
2.04444 0	 0.0
2.06667 0	 0.0
2.06667 0.0222222	 0.0
2.04444 0.0222222	 0.0
2.06667 0	 0.0
2.08889 0	 0.0
2.08889 0.0222222	 0.0
2.06667 0.0222222	 0.0
2.08889 0	 0.0
2.11111 0	 0.0
2.11111 0.0222222	 0.0
2.08889 0.0222222	 0.0
2.11111 0	 0.0
2.13333 0	 0.0
2.13333 0.0222222	 0.0
2.11111 0.0222222	 0.0
2.13333 0	 0.0
2.15556 0	 0.0
2.15556 0.0222222	 0.0
2.13333 0.0222222	 0.0
2.15556 0	 0.0
2.17778 0	 0.0
2.17778 0.0222222	 0.0
2.15556 0.0222222	 0.0
2.17778 0	 0.0
2.2 0	 0.0
2.2 0.0222222	 0.0
2.17778 0.0222222	 0.0
2.2 0	 0.0
2.22222 0	 0.0
2.22222 0.0222222	 0.0
2.2 0.0222222	 0.0
2.22222 0	 0.0
2.24444 0	 0.0
2.24444 0.0222222	 0.0
2.22222 0.0222222	 0.0
2.24444 0	 0.0
2.26667 0	 0.0
2.26667 0.0222222	 0.0
2.24444 0.0222222	 0.0
2.26667 0	 0.0
2.28889 0	 0.0
2.28889 0.0222222	 0.0
2.26667 0.0222222	 0.0
2.28889 0	 0.0
2.31111 0	 0.0
2.31111 0.0222222	 0.0
2.28889 0.0222222	 0.0
2.31111 0	 0.0
2.33333 0	 0.0
2.33333 0.0222222	 0.0
2.31111 0.0222222	 0.0
2.33333 0	 0.0
2.35556 0	 0.0
2.35556 0.0222222	 0.0
2.33333 0.0222222	 0.0
2.35556 0	 0.0
2.37778 0	 0.0
2.37778 0.0222222	 0.0
2.35556 0.0222222	 0.0
2.37778 0	 0.0
2.4 0	 0.0
2.4 0.0222222	 0.0
2.37778 0.0222222	 0.0
2.4 0	 0.0
2.42222 0	 0.0
2.42222 0.0222222	 0.0
2.4 0.0222222	 0.0
2.42222 0	 0.0
2.44444 0	 0.0
2.44444 0.0222222	 0.0
2.42222 0.0222222	 0.0
2.44444 0	 0.0
2.46667 0	 0.0
2.46667 0.0222222	 0.0
2.44444 0.0222222	 0.0
2.46667 0	 0.0
2.48889 0	 0.0
2.48889 0.0222222	 0.0
2.46667 0.0222222	 0.0
2.48889 0	 0.0
2.51111 0	 0.0
2.51111 0.0222222	 0.0
2.48889 0.0222222	 0.0
2.51111 0	 0.0
2.53333 0	 0.0
2.53333 0.0222222	 0.0
2.51111 0.0222222	 0.0
2.53333 0	 0.0
2.55556 0	 0.0
2.55556 0.0222222	 0.0
2.53333 0.0222222	 0.0
2.55556 0	 0.0
2.57778 0	 0.0
2.57778 0.0222222	 0.0
2.55556 0.0222222	 0.0
2.57778 0	 0.0
2.6 0	 0.0
2.6 0.0222222	 0.0
2.57778 0.0222222	 0.0
2.6 0	 0.0
2.62222 0	 0.0
2.62222 0.0222222	 0.0
2.6 0.0222222	 0.0
2.62222 0	 0.0
2.64444 0	 0.0
2.64444 0.0222222	 0.0
2.62222 0.0222222	 0.0
2.64444 0	 0.0
2.66667 0	 0.0
2.66667 0.0222222	 0.0
2.64444 0.0222222	 0.0
2.66667 0	 0.0
2.68889 0	 0.0
2.68889 0.0222222	 0.0
2.66667 0.0222222	 0.0
2.68889 0	 0.0
2.71111 0	 0.0
2.71111 0.0222222	 0.0
2.68889 0.0222222	 0.0
2.71111 0	 0.0
2.73333 0	 0.0
2.73333 0.0222222	 0.0
2.71111 0.0222222	 0.0
2.73333 0	 0.0
2.75556 0	 0.0
2.75556 0.0222222	 0.0
2.73333 0.0222222	 0.0
2.75556 0	 0.0
2.77778 0	 0.0
2.77778 0.0222222	 0.0
2.75556 0.0222222	 0.0
2.77778 0	 0.0
2.8 0	 0.0
2.8 0.0222222	 0.0
2.77778 0.0222222	 0.0
2.8 0	 0.0
2.82222 0	 0.0
2.82222 0.0222222	 0.0
2.8 0.0222222	 0.0
2.82222 0	 0.0
2.84444 0	 0.0
2.84444 0.0222222	 0.0
2.82222 0.0222222	 0.0
2.84444 0	 0.0
2.86667 0	 0.0
2.86667 0.0222222	 0.0
2.84444 0.0222222	 0.0
2.86667 0	 0.0
2.88889 0	 0.0
2.88889 0.0222222	 0.0
2.86667 0.0222222	 0.0
2.88889 0	 0.0
2.91111 0	 0.0
2.91111 0.0222222	 0.0
2.88889 0.0222222	 0.0
2.91111 0	 0.0
[...]
POINT_DATA 23448
SCALARS levelset_first float
LOOKUP_TABLE default
-1.07379
-1.0357
-1.00953
-1.04762
-1.0357
-0.998595
-0.972422
-1.00953
-0.998595
-0.962477
-0.936304
-0.972422
-0.962477
-0.927346
-0.901173
-0.936304
-0.927346
-0.893203
-0.86703
-0.901173
-0.893203
-0.860048
-0.833875
-0.86703
-0.860048
-0.827881
-0.801708
-0.833875
-0.827881
-0.796701
-0.770528
-0.801708
-0.796701
-0.766509
-0.740336
-0.770528
-0.766509
-0.737304
-0.711131
-0.740336
-0.737304
-0.709087
-0.682914
-0.711131
-0.709087
-0.681858
-0.655685
-0.682914
-0.681858
-0.655616
-0.629444
-0.655685
-0.655616
-0.630363
-0.60419
-0.629444
-0.630363
-0.606096
-0.579923
-0.60419
-0.606096
-0.582818
-0.556645
-0.579923
-0.582818
-0.560527
-0.534354
-0.556645
-0.560527
-0.539223
-0.513051
-0.534354
-0.539223
-0.518908
-0.492735
-0.513051
-0.518908
-0.49958
-0.473407
-0.492735
-0.49958
-0.481239
-0.455067
-0.473407
-0.481239
-0.463887
-0.437714
-0.455067
-0.463887
-0.447522
-0.421349
-0.437714
-0.447522
-0.432144
-0.405972
-0.421349
-0.432144
-0.417755
-0.391582
-0.405972
-0.417755
-0.404353
-0.37818
-0.391582
-0.404353
-0.391938
-0.365765
-0.37818
-0.391938
-0.380511
-0.354339
-0.365765
-0.380511
-0.370072
-0.3439
-0.354339
-0.370072
-0.360621
-0.334448
-0.3439
-0.360621
-0.352157
-0.325984
-0.334448
-0.352157
-0.344681
-0.318508
-0.325984
-0.344681
-0.338193
-0.31202
-0.318508
-0.338193
-0.332692
-0.306519
-0.31202
-0.332692
-0.328179
-0.302006
-0.306519
-0.328179
-0.324653
-0.29848
-0.302006
-0.324653
-0.322115
-0.295942
-0.29848
-0.322115
-0.320565
-0.294392
-0.295942
-0.320565
-0.320002
-0.29383
-0.294392
-0.320002
-0.320427
-0.294255
-0.29383
-0.320427
-0.32184
-0.295667
-0.294255
-0.32184
-0.324241
-0.298068
-0.295667
-0.324241
-0.327629
-0.301456
-0.298068
-0.327629
-0.332004
-0.305832
-0.301456
-0.332004
-0.337368
-0.311195
-0.305832
-0.337368
-0.343719
-0.317546
-0.311195
-0.343719
-0.351058
-0.324885
-0.317546
-0.351058
-0.359384
-0.333211
-0.324885
-0.359384
-0.368698
-0.342525
-0.333211
-0.368698
-0.378999
-0.352827
-0.342525
-0.378999
-0.390289
-0.364116
-0.352827
-0.390289
-0.402566
-0.376393
-0.364116
-0.402566
-0.41583
-0.389657
-0.376393
-0.41583
-0.430083
-0.40391
-0.389657
-0.430083
-0.445323
-0.41915
-0.40391
-0.445323
-0.46155
-0.435377
-0.41915
-0.46155
-0.478765
-0.452592
-0.435377
-0.478765
-0.496968
-0.470795
-0.452592
-0.496968
-0.516159
-0.489986
-0.470795
-0.516159
-0.536337
-0.510164
-0.489986
-0.536337
-0.557503
-0.53133
-0.510164
-0.557503
-0.579656
-0.553483
-0.53133
-0.579656
-0.602797
-0.576625
-0.553483
-0.602797
-0.626926
-0.600753
-0.576625
-0.626926
-0.652043
-0.62587
-0.600753
-0.652043
-0.678147
-0.651974
-0.62587
-0.678147
-0.705239
-0.679066
-0.651974
-0.705239
-0.733318
-0.707145
-0.679066
-0.733318
-0.762385
-0.736212
-0.707145
-0.762385
-0.79244
-0.766267
-0.736212
-0.79244
-0.823482
-0.797309
-0.766267
-0.823482
-0.855512
-0.829339
-0.797309
-0.855512
-0.88853
-0.862357
-0.829339
-0.88853
-0.922535
-0.896362
-0.862357
-0.922535
-0.957528
-0.931355
-0.896362
-0.957528
-0.993509
-0.967336
-0.931355
-0.993509
-1.03048
-1.0043
-0.967336
-1.03048
-1.06843
-1.04226
-1.0043
-1.06843
-1.10738
-1.0812
-1.04226
-1.10738
-1.14731
-1.12114
-1.0812
-1.14731
-1.18823
-1.16205
-1.12114
-1.18823
-1.23013
-1.20396
-1.16205
-1.23013
-1.27303
-1.24685
-1.20396
-1.27303
-1.31691
-1.29074
-1.24685
-1.31691
-1.36178
-1.33561
-1.29074
-1.36178
-1.40764
-1.38146
-1.33561
-1.40764
-1.45448
-1.42831
-1.38146
-1.45448
-1.50231
-1.47614
-1.42831
-1.50231
-1.55113
-1.52496
-1.47614
-1.55113
-1.60094
-1.57477
-1.52496
-1.60094
-1.65174
-1.62556
-1.57477
-1.65174
-1.70352
-1.67735
-1.62556
-1.70352
-1.75629
-1.73012
-1.67735
-1.75629
-1.81005
-1.78388
-1.73012
-1.81005
-1.8648
-1.83862
-1.78388
-1.8648
-1.92053
-1.89436
-1.83862
-1.92053
-1.97725
-1.95108
-1.89436
-1.97725
-2.03496
-2.00879
-1.95108
-2.03496
-2.09366
-2.06748
-2.00879
-2.09366
-2.15334
-2.12717
-2.06748
-2.15334
-2.21401
-2.18784
-2.12717
-2.21401
-2.27567
-2.2495
-2.18784
-2.27567
-2.33832
-2.31215
-2.2495
-2.33832
-2.40195
-2.37578
-2.31215
-2.40195
-2.46658
-2.4404
-2.37578
-2.46658
-2.53219
-2.50601
-2.4404
-2.53219
-2.59879
-2.57261
-2.50601
-2.59879
-2.66637
-2.6402
-2.57261
-2.66637
-2.73494
-2.70877
-2.6402
-2.73494
-2.80451
-2.77833
-2.70877
-2.80451
-2.87505
-2.84888
-2.77833
-2.87505
-2.94659
-2.92042
-2.84888
-2.94659
-3.01911
-2.99294
-2.92042
-3.01911
-3.09263
-3.06645
-2.99294
-3.09263
-3.16712
-3.14095
-3.06645
-3.16712
-3.24261
-3.21644
-3.14095
-3.24261
-3.31909
-3.29291
-3.21644
-3.31909
-3.39655
-3.37038
-3.29291
-3.39655
-3.475
-3.44883
-3.37038
-3.475
-3.55444
-3.52826
-3.44883
-3.55444
-3.63486
-3.60869
-3.52826
-3.63486
-3.71627
-3.6901
-3.60869
-3.71627
-3.79867
-3.7725
-3.6901
-3.79867
-3.88206
-3.85589
-3.7725
-3.88206
-3.96644
-3.94026
-3.85589
-3.96644
-4.0518
-4.02563
-3.94026
-4.0518
-4.13815
-4.11198
-4.02563
-4.13815
-4.22549
-4.19932
-4.11198
-4.22549
-4.31382
-4.28764
-4.19932
-4.31382
-4.40313
-4.37696
-4.28764
-4.40313
-4.49343
-4.46726
-4.37696
-4.49343
-4.58472
-4.55855
-4.46726
-4.58472
-4.677
-4.65083
-4.55855
-4.677
-4.77026
-4.74409
-4.65083
-4.77026
-4.86452
-4.83834
-4.74409
-1.04762
-1.00953
-0.984342
-1.02244
-1.00953
-0.972422
-0.947237
-0.984342
-0.972422
-0.936304
-0.911119
-0.947237
-0.936304
-0.901173
-0.875988
-0.911119
-0.901173
-0.86703
-0.841845
-0.875988
-0.86703
-0.833875
-0.80869
-0.841845
-0.833875
-0.801708
-0.776523
-0.80869
-0.801708
-0.770528
-0.745343
-0.776523
-0.770528
-0.740336
-0.715151
-0.745343
-0.740336
-0.711131
-0.685946
-0.715151
-0.711131
-0.682914
-0.657729
-0.685946
-0.682914
-0.655685
-0.6305
-0.657729
-0.655685
-0.629444
-0.604258
-0.6305
-0.629444
-0.60419
-0.579005
-0.604258
-0.60419
-0.579923
-0.554738
-0.579005
-0.579923
-0.556645
-0.53146
-0.554738
-0.556645
-0.534354
-0.509169
-0.53146
-0.534354
-0.513051
-0.487865
-0.509169
-0.513051
-0.492735
-0.46755
-0.487865
-0.492735
-0.473407
-0.448222
-0.46755
-0.473407
-0.455067
-0.429881
-0.448222
-0.455067
-0.437714
-0.412529
-0.429881
-0.437714
-0.421349
-0.396164
-0.412529
-0.421349
-0.405972
-0.380786
-0.396164
-0.405972
-0.391582
-0.366397
-0.380786
-0.391582
-0.37818
-0.352995
-0.366397
-0.37818
-0.365765
-0.34058
-0.352995
-0.365765
-0.354339
-0.329153
-0.34058
-0.354339
-0.3439
-0.318714
-0.329153
-0.3439
-0.334448
-0.309263
-0.318714
-0.334448
-0.325984
-0.300799
-0.309263
-0.325984
-0.318508
-0.293323
-0.300799
-0.318508
-0.31202
-0.286835
-0.293323
-0.31202
-0.306519
-0.281334
-0.286835
-0.306519
-0.302006
-0.276821
-0.281334
-0.302006
-0.29848
-0.273295
-0.276821
-0.29848
-0.295942
-0.270757
-0.273295
-0.295942
-0.294392
-0.269207
-0.270757
-0.294392
-0.29383
-0.268644
-0.269207
-0.29383
-0.294255
-0.269069
-0.268644
-0.294255
-0.295667
-0.270482
-0.269069
-0.295667
-0.298068
-0.272883
-0.270482
-0.298068
-0.301456
-0.276271
-0.272883
-0.301456
-0.305832
-0.280646
-0.276271
-0.305832
-0.311195
-0.28601
-0.280646
-0.311195
-0.317546
-0.292361
-0.28601
-0.317546
-0.324885
-0.299699
-0.292361
-0.324885
-0.333211
-0.308026
-0.299699
-0.333211
-0.342525
-0.31734
-0.308026
-0.342525
-0.352827
-0.327641
-0.31734
-0.352827
-0.364116
-0.338931
-0.327641
-0.364116
-0.376393
-0.351208
-0.338931
-0.376393
-0.389657
-0.364472
-0.351208
-0.389657
-0.40391
-0.378725
-0.364472
-0.40391
-0.41915
-0.393964
-0.378725
-0.41915
-0.435377
-0.410192
-0.393964
-0.435377
-0.452592
-0.427407
-0.410192
-0.452592
-0.470795
-0.44561
-0.427407
-0.470795
-0.489986
-0.464801
-0.44561
-0.489986
-0.510164
-0.484979
-0.464801
-0.510164
-0.53133
-0.506145
-0.484979
-0.53133
-0.553483
-0.528298
-0.506145
-0.553483
-0.576625
-0.551439
-0.528298
-0.576625
-0.600753
-0.575568
-0.551439
-0.600753
-0.62587
-0.600685
-0.575568
-0.62587
-0.651974
-0.626789
-0.600685
-0.651974
-0.679066
-0.65388
-0.626789
-0.679066
-0.707145
-0.68196
-0.65388
-0.707145
-0.736212
-0.711027
-0.68196
-0.736212
-0.766267
-0.741082
-0.711027
-0.766267
-0.797309
-0.772124
-0.741082
-0.797309
-0.829339
-0.804154
-0.772124
-0.829339
-0.862357
-0.837172
-0.804154
-0.862357
-0.896362
-0.871177
-0.837172
-0.896362
-0.931355
-0.90617
-0.871177
-0.931355
-0.967336
-0.942151
-0.90617
-0.967336
-1.0043
-0.979119
-0.942151
-1.0043
-1.04226
-1.01708
-0.979119
-1.04226
-1.0812
-1.05602
-1.01708
-1.0812
-1.12114
-1.09595
-1.05602
-1.12114
-1.16205
-1.13687
-1.09595
-1.16205
-1.20396
-1.17878
-1.13687
-1.20396
-1.24685
-1.22167
-1.17878
-1.24685
-1.29074
-1.26555
-1.22167
-1.29074
-1.33561
-1.31042
-1.26555
-1.33561
-1.38146
-1.35628
-1.31042
-1.38146
-1.42831
-1.40312
-1.35628
-1.42831
-1.47614
-1.45096
-1.40312
-1.47614
-1.52496
-1.49978
-1.45096
-1.52496
-1.57477
-1.54958
-1.49978
-1.57477
-1.62556
-1.60038
-1.54958
-1.62556
-1.67735
-1.65216
-1.60038
-1.67735
-1.73012
-1.70493
-1.65216
-1.73012
-1.78388
-1.75869
-1.70493
-1.78388
-1.83862
-1.81344
-1.75869
-1.83862
-1.89436
-1.86917
-1.81344
-1.89436
-1.95108
-1.92589
-1.86917
-1.95108
-2.00879
-1.9836
-1.92589
-2.00879
-2.06748
-2.0423
-1.9836
-2.06748
-2.12717
-2.10198
-2.0423
-2.12717
-2.18784
-2.16265
-2.10198
-2.18784
-2.2495
-2.22431
-2.16265
-2.2495
-2.31215
-2.28696
-2.22431
-2.31215
-2.37578
-2.3506
-2.28696
-2.37578
-2.4404
-2.41522
-2.3506
-2.4404
-2.50601
-2.48083
-2.41522
-2.50601
-2.57261
-2.54743
-2.48083
-2.57261
-2.6402
-2.61501
-2.54743
-2.6402
-2.70877
-2.68359
-2.61501
-2.70877
-2.77833
-2.75315
-2.68359
-2.77833
-2.84888
-2.8237
-2.75315
-2.84888
-2.92042
-2.89523
-2.8237
-2.92042
-2.99294
-2.96776
-2.89523
-2.99294
-3.06645
-3.04127
-2.96776
-3.06645
-3.14095
-3.11577
-3.04127
-3.14095
-3.21644
-3.19125
-3.11577
-3.21644
-3.29291
-3.26773
-3.19125
-3.29291
-3.37038
-3.34519
-3.26773
-3.37038
-3.44883
-3.42364
-3.34519
-3.44883
-3.52826
-3.50308
-3.42364
-3.52826
-3.60869
-3.5835
-3.50308
-3.60869
-3.6901
-3.66492
-3.5835
-3.6901
-3.7725
-3.74732
-3.66492
-3.7725
-3.85589
-3.8307
-3.74732
-3.85589
-3.94026
-3.91508
-3.8307
-3.94026
-4.02563
-4.00044
-3.91508
-4.02563
-4.11198
-4.08679
-4.00044
-4.11198
-4.19932
-4.17413
-4.08679
-4.19932
-4.28764
-4.26246
-4.17413
-4.28764
-4.37696
-4.35177
-4.26246
-4.37696
-4.46726
-4.44207
-4.35177
-4.46726
-4.55855
-4.53336
-4.44207
-4.55855
-4.65083
-4.62564
-4.53336
-4.65083
-4.74409
-4.71891
-4.62564
-4.74409
-4.83834
-4.81316
-4.71891
-1.02244
-0.984342
-0.960145
-0.998238
-0.984342
-0.947237
-0.923039
-0.960145
-0.947237
-0.911119
-0.886921
-0.923039
-0.911119
-0.875988
-0.851791
-0.886921
-0.875988
-0.841845
-0.817648
-0.851791
-0.841845
-0.80869
-0.784493
-0.817648
-0.80869
-0.776523
-0.752325
-0.784493
-0.776523
-0.745343
-0.721145
-0.752325
-0.745343
-0.715151
-0.690953
-0.721145
-0.715151
-0.685946
-0.661749
-0.690953
-0.685946
-0.657729
-0.633532
-0.661749
-0.657729
-0.6305
-0.606302
-0.633532
-0.6305
-0.604258
-0.580061
-0.606302
-0.604258
-0.579005
-0.554807
-0.580061
-0.579005
-0.554738
-0.530541
-0.554807
-0.554738
-0.53146
-0.507262
-0.530541
-0.53146
-0.509169
-0.484971
-0.507262
-0.509169
-0.487865
-0.463668
-0.484971
-0.487865
-0.46755
-0.443352
-0.463668
-0.46755
-0.448222
-0.424024
-0.443352
-0.448222
-0.429881
-0.405684
-0.424024
-0.429881
-0.412529
-0.388331
-0.405684
-0.412529
-0.396164
-0.371966
-0.388331
-0.396164
-0.380786
-0.356589
-0.371966
-0.380786
-0.366397
-0.342199
-0.356589
-0.366397
-0.352995
-0.328797
-0.342199
-0.352995
-0.34058
-0.316383
-0.328797
-0.34058
-0.329153
-0.304956
-0.316383
-0.329153
-0.318714
-0.294517
-0.304956
-0.318714
-0.309263
-0.285065
-0.294517
-0.309263
-0.300799
-0.276602
-0.285065
-0.300799
-0.293323
-0.269125
-0.276602
-0.293323
-0.286835
-0.262637
-0.269125
-0.286835
-0.281334
-0.257136
-0.262637
-0.281334
-0.276821
-0.252623
-0.257136
-0.276821
-0.273295
-0.249097
-0.252623
-0.273295
-0.270757
-0.24656
-0.249097
-0.270757
-0.269207
-0.245009
-0.24656
-0.269207
-0.268644
-0.244447
-0.245009
-0.268644
-0.269069
-0.244872
-0.244447
-0.269069
-0.270482
-0.246285
-0.244872
-0.270482
-0.272883
-0.248685
-0.246285
-0.272883
-0.276271
-0.252073
-0.248685
-0.276271
-0.280646
-0.256449
-0.252073
-0.280646
-0.28601
-0.261812
-0.256449
-0.28601
-0.292361
-0.268163
-0.261812
-0.292361
-0.299699
-0.275502
-0.268163
-0.299699
-0.308026
-0.283828
-0.275502
-0.308026
-0.31734
-0.293142
-0.283828
-0.31734
-0.327641
-0.303444
-0.293142
-0.327641
-0.338931
-0.314733
-0.303444
-0.338931
-0.351208
-0.32701
-0.314733
-0.351208
-0.364472
-0.340275
-0.32701
-0.364472
-0.378725
-0.354527
-0.340275
-0.378725
-0.393964
-0.369767
-0.354527
-0.393964
-0.410192
-0.385995
-0.369767
-0.410192
-0.427407
-0.40321
-0.385995
-0.427407
-0.44561
-0.421413
-0.40321
-0.44561
-0.464801
-0.440603
-0.421413
-0.464801
-0.484979
-0.460781
-0.440603
-0.484979
-0.506145
-0.481947
-0.460781
-0.506145
-0.528298
-0.504101
-0.481947
-0.528298
-0.551439
-0.527242
-0.504101
-0.551439
-0.575568
-0.551371
-0.527242
-0.575568
-0.600685
-0.576487
-0.551371
-0.600685
-0.626789
-0.602591
-0.576487
-0.626789
-0.65388
-0.629683
-0.602591
-0.65388
-0.68196
-0.657762
-0.629683
-0.68196
-0.711027
-0.686829
-0.657762
-0.711027
-0.741082
-0.716884
-0.686829
-0.741082
-0.772124
-0.747927
-0.716884
-0.772124
-0.804154
-0.779957
-0.747927
-0.804154
-0.837172
-0.812974
-0.779957
-0.837172
-0.871177
-0.84698
-0.812974
-0.871177
-0.90617
-0.881973
-0.84698
-0.90617
-0.942151
-0.917953
-0.881973
-0.942151
-0.979119
-0.954922
-0.917953
-0.979119
-1.01708
-0.992878
-0.954922
-1.01708
-1.05602
-1.03182
-0.992878
-1.05602
-1.09595
-1.07175
-1.03182
-1.09595
-1.13687
-1.11267
-1.07175
-1.13687
-1.17878
-1.15458
-1.11267
-1.17878
-1.22167
-1.19747
-1.15458
-1.22167
-1.26555
-1.24135
-1.19747
-1.26555
-1.31042
-1.28622
-1.24135
-1.31042
-1.35628
-1.33208
-1.28622
-1.35628
-1.40312
-1.37893
-1.33208
-1.40312
-1.45096
-1.42676
-1.37893
-1.45096
-1.49978
-1.47558
-1.42676
-1.49978
-1.54958
-1.52539
-1.47558
-1.54958
-1.60038
-1.57618
-1.52539
-1.60038
-1.65216
-1.62796
-1.57618
-1.65216
-1.70493
-1.68074
-1.62796
-1.70493
-1.75869
-1.73449
-1.68074
-1.75869
-1.81344
-1.78924
-1.73449
-1.81344
-1.86917
-1.84497
-1.78924
-1.86917
-1.92589
-1.9017
-1.84497
-1.92589
-1.9836
-1.9594
-1.9017
-1.9836
-2.0423
-2.0181
-1.9594
-2.0423
-2.10198
-2.07779
-2.0181
-2.10198
-2.16265
-2.13846
-2.07779
-2.16265
-2.22431
-2.20012
-2.13846
-2.22431
-2.28696
-2.26276
-2.20012
-2.28696
-2.3506
-2.3264
-2.26276
-2.3506
-2.41522
-2.39102
-2.3264
-2.41522
-2.48083
-2.45663
-2.39102
-2.48083
-2.54743
-2.52323
-2.45663
-2.54743
-2.61501
-2.59082
-2.52323
-2.61501
-2.68359
-2.65939
-2.59082
-2.68359
-2.75315
-2.72895
-2.65939
-2.75315
-2.8237
-2.7995
-2.72895
-2.8237
-2.89523
-2.87103
-2.7995
-2.89523
-2.96776
-2.94356
-2.87103
-2.96776
-3.04127
-3.01707
-2.94356
-3.04127
-3.11577
-3.09157
-3.01707
-3.11577
-3.19125
-3.16706
-3.09157
-3.19125
-3.26773
-3.24353
-3.16706
-3.26773
-3.34519
-3.32099
-3.24353
-3.34519
-3.42364
-3.39944
-3.32099
-3.42364
-3.50308
-3.47888
-3.39944
-3.50308
-3.5835
-3.5593
-3.47888
-3.5835
-3.66492
-3.64072
-3.5593
-3.66492
-3.74732
-3.72312
-3.64072
-3.74732
-3.8307
-3.80651
-3.72312
-3.8307
-3.91508
-3.89088
-3.80651
-3.91508
-4.00044
-3.97625
-3.89088
-4.00044
-4.08679
-4.0626
-3.97625
-4.08679
-4.17413
-4.14994
-4.0626
-4.17413
-4.26246
-4.23826
-4.14994
-4.26246
-4.35177
-4.32758
-4.23826
-4.35177
-4.44207
-4.41788
-4.32758
-4.44207
-4.53336
-4.50917
-4.41788
-4.53336
-4.62564
-4.60144
-4.50917
-4.62564
-4.71891
-4.69471
-4.60144
-4.71891
-4.81316
-4.78896
-4.69471
-0.998238
-0.960145
-0.936935
-0.975028
-0.960145
-0.923039
-0.899829
-0.936935
-0.923039
-0.886921
-0.863711
-0.899829
-0.886921
-0.851791
-0.828581
-0.863711
-0.851791
-0.817648
-0.794438
-0.828581
-0.817648
-0.784493
-0.761283
-0.794438
-0.784493
-0.752325
-0.729115
-0.761283
-0.752325
-0.721145
-0.697935
-0.729115
-0.721145
-0.690953
-0.667743
-0.697935
-0.690953
-0.661749
-0.638539
-0.667743
-0.661749
-0.633532
-0.610322
-0.638539
-0.633532
-0.606302
-0.583093
-0.610322
-0.606302
-0.580061
-0.556851
-0.583093
-0.580061
-0.554807
-0.531597
-0.556851
-0.554807
-0.530541
-0.507331
-0.531597
-0.530541
-0.507262
-0.484052
-0.507331
-0.507262
-0.484971
-0.461761
-0.484052
-0.484971
-0.463668
-0.440458
-0.461761
-0.463668
-0.443352
-0.420142
-0.440458
-0.443352
-0.424024
-0.400814
-0.420142
-0.424024
-0.405684
-0.382474
-0.400814
-0.405684
-0.388331
-0.365121
-0.382474
-0.388331
-0.371966
-0.348756
-0.365121
-0.371966
-0.356589
-0.333379
-0.348756
-0.356589
-0.342199
-0.318989
-0.333379
-0.342199
-0.328797
-0.305587
-0.318989
-0.328797
-0.316383
-0.293173
-0.305587
-0.316383
-0.304956
-0.281746
-0.293173
-0.304956
-0.294517
-0.271307
-0.281746
-0.294517
-0.285065
-0.261856
-0.271307
-0.285065
-0.276602
-0.253392
-0.261856
-0.276602
-0.269125
-0.245916
-0.253392
-0.269125
-0.262637
-0.239427
-0.245916
-0.262637
-0.257136
-0.233926
-0.239427
-0.257136
-0.252623
-0.229413
-0.233926
-0.252623
-0.249097
-0.225888
-0.229413
-0.249097
-0.24656
-0.22335
-0.225888
-0.24656
-0.245009
-0.2218
-0.22335
-0.245009
-0.244447
-0.221237
-0.2218
-0.244447
-0.244872
-0.221662
-0.221237
-0.244872
-0.246285
-0.223075
-0.221662
-0.246285
-0.248685
-0.225475
-0.223075
-0.248685
-0.252073
-0.228863
-0.225475
-0.252073
-0.256449
-0.233239
-0.228863
-0.256449
-0.261812
-0.238602
-0.233239
-0.261812
-0.268163
-0.244953
-0.238602
-0.268163
-0.275502
-0.252292
-0.244953
-0.275502
-0.283828
-0.260618
-0.252292
-0.283828
-0.293142
-0.269932
-0.260618
-0.293142
-0.303444
-0.280234
-0.269932
-0.303444
-0.314733
-0.291523
-0.280234
-0.314733
-0.32701
-0.3038
-0.291523
-0.32701
-0.340275
-0.317065
-0.3038
-0.340275
-0.354527
-0.331317
-0.317065
-0.354527
-0.369767
-0.346557
-0.331317
-0.369767
-0.385995
-0.362785
-0.346557
-0.385995
-0.40321
-0.38
-0.362785
-0.40321
-0.421413
-0.398203
-0.38
-0.421413
-0.440603
-0.417393
-0.398203
-0.440603
-0.460781
-0.437571
-0.417393
-0.460781
-0.481947
-0.458737
-0.437571
-0.481947
-0.504101
-0.480891
-0.458737
-0.504101
-0.527242
-0.504032
-0.480891
-0.527242
-0.551371
-0.528161
-0.504032
-0.551371
-0.576487
-0.553277
-0.528161
-0.576487
-0.602591
-0.579381
-0.553277
-0.602591
-0.629683
-0.606473
-0.579381
-0.629683
-0.657762
-0.634552
-0.606473
-0.657762
-0.686829
-0.66362
-0.634552
-0.686829
-0.716884
-0.693674
-0.66362
-0.716884
-0.747927
-0.724717
-0.693674
-0.747927
-0.779957
-0.756747
-0.724717
-0.779957
-0.812974
-0.789764
-0.756747
-0.812974
-0.84698
-0.82377
-0.789764
-0.84698
-0.881973
-0.858763
-0.82377
-0.881973
-0.917953
-0.894743
-0.858763
-0.917953
-0.954922
-0.931712
-0.894743
-0.954922
-0.992878
-0.969668
-0.931712
-0.992878
-1.03182
-1.00861
-0.969668
-1.03182
-1.07175
-1.04854
-1.00861
-1.07175
-1.11267
-1.08946
-1.04854
-1.11267
-1.15458
-1.13137
-1.08946
-1.15458
-1.19747
-1.17426
-1.13137
-1.19747
-1.24135
-1.21814
-1.17426
-1.24135
-1.28622
-1.26301
-1.21814
-1.28622
-1.33208
-1.30887
-1.26301
-1.33208
-1.37893
-1.35572
-1.30887
-1.37893
-1.42676
-1.40355
-1.35572
-1.42676
-1.47558
-1.45237
-1.40355
-1.47558
-1.52539
-1.50218
-1.45237
-1.52539
-1.57618
-1.55297
-1.50218
-1.57618
-1.62796
-1.60475
-1.55297
-1.62796
-1.68074
-1.65753
-1.60475
-1.68074
-1.73449
-1.71128
-1.65753
-1.73449
-1.78924
-1.76603
-1.71128
-1.78924
-1.84497
-1.82176
-1.76603
-1.84497
-1.9017
-1.87849
-1.82176
-1.9017
-1.9594
-1.93619
-1.87849
-1.9594
-2.0181
-1.99489
-1.93619
-2.0181
-2.07779
-2.05458
-1.99489
-2.07779
-2.13846
-2.11525
-2.05458
-2.13846
-2.20012
-2.17691
-2.11525
-2.20012
-2.26276
-2.23955
-2.17691
-2.26276
-2.3264
-2.30319
-2.23955
-2.3264
-2.39102
-2.36781
-2.30319
-2.39102
-2.45663
-2.43342
-2.36781
-2.45663
-2.52323
-2.50002
-2.43342
-2.52323
-2.59082
-2.56761
-2.50002
-2.59082
-2.65939
-2.63618
-2.56761
-2.65939
-2.72895
-2.70574
-2.63618
-2.72895
-2.7995
-2.77629
-2.70574
-2.7995
-2.87103
-2.84782
-2.77629
-2.87103
-2.94356
-2.92035
-2.84782
-2.94356
-3.01707
-2.99386
-2.92035
-3.01707
-3.09157
-3.06836
-2.99386
-3.09157
-3.16706
-3.14385
-3.06836
-3.16706
-3.24353
-3.22032
-3.14385
-3.24353
-3.32099
-3.29778
-3.22032
-3.32099
-3.39944
-3.37623
-3.29778
-3.39944
-3.47888
-3.45567
-3.37623
-3.47888
-3.5593
-3.5361
-3.45567