# vtk DataFile Version 1.0
unstructured Grid
ASCII
DATASET UNSTRUCTURED_GRID
POINTS 23440 float 
0 0	 0.0
0.0222222 0	 0.0
0.0222222 0.0222222	 0.0
0 0.0222222	 0.0
0.0222222 0	 0.0
0.0444444 0	 0.0
0.0444444 0.0222222	 0.0
0.0222222 0.0222222	 0.0
0.0444444 0	 0.0
0.0666667 0	 0.0
0.0666667 0.0222222	 0.0
0.0444444 0.0222222	 0.0
0.0666667 0	 0.0
0.0888889 0	 0.0
0.0888889 0.0222222	 0.0
0.0666667 0.0222222	 0.0
0.0888889 0	 0.0
0.111111 0	 0.0
0.111111 0.0222222	 0.0
0.0888889 0.0222222	 0.0
0.111111 0	 0.0
0.133333 0	 0.0
0.133333 0.0222222	 0.0
0.111111 0.0222222	 0.0
0.133333 0	 0.0
0.155556 0	 0.0
0.155556 0.0222222	 0.0
0.133333 0.0222222	 0.0
0.155556 0	 0.0
0.177778 0	 0.0
0.177778 0.0222222	 0.0
0.155556 0.0222222	 0.0
0.177778 0	 0.0
0.2 0	 0.0
0.2 0.0222222	 0.0
0.177778 0.0222222	 0.0
0.2 0	 0.0
0.222222 0	 0.0
0.222222 0.0222222	 0.0
0.2 0.0222222	 0.0
0.222222 0	 0.0
0.244444 0	 0.0
0.244444 0.0222222	 0.0
0.222222 0.0222222	 0.0
0.244444 0	 0.0
0.266667 0	 0.0
0.266667 0.0222222	 0.0
0.244444 0.0222222	 0.0
0.266667 0	 0.0
0.288889 0	 0.0
0.288889 0.0222222	 0.0
0.266667 0.0222222	 0.0
0.288889 0	 0.0
0.311111 0	 0.0
0.311111 0.0222222	 0.0
0.288889 0.0222222	 0.0
0.311111 0	 0.0
0.333333 0	 0.0
0.333333 0.0222222	 0.0
0.311111 0.0222222	 0.0
0.333333 0	 0.0
0.355556 0	 0.0
0.355556 0.0222222	 0.0
0.333333 0.0222222	 0.0
0.355556 0	 0.0
0.377778 0	 0.0
0.377778 0.0222222	 0.0
0.355556 0.0222222	 0.0
0.377778 0	 0.0
0.4 0	 0.0
0.4 0.0222222	 0.0
0.377778 0.0222222	 0.0
0.4 0	 0.0
0.422222 0	 0.0
0.422222 0.0222222	 0.0
0.4 0.0222222	 0.0
0.422222 0	 0.0
0.444444 0	 0.0
0.444444 0.0222222	 0.0
0.422222 0.0222222	 0.0
0.444444 0	 0.0
0.466667 0	 0.0
0.466667 0.0222222	 0.0
0.444444 0.0222222	 0.0
0.466667 0	 0.0
0.488889 0	 0.0
0.488889 0.0222222	 0.0
0.466667 0.0222222	 0.0
0.488889 0	 0.0
0.511111 0	 0.0
0.511111 0.0222222	 0.0
0.488889 0.0222222	 0.0
0.511111 0	 0.0
0.533333 0	 0.0
0.533333 0.0222222	 0.0
0.511111 0.0222222	 0.0
0.533333 0	 0.0
0.555556 0	 0.0
0.555556 0.0222222	 0.0
0.533333 0.0222222	 0.0
0.555556 0	 0.0
0.577778 0	 0.0
0.577778 0.0222222	 0.0
0.555556 0.0222222	 0.0
0.577778 0	 0.0
0.6 0	 0.0
0.6 0.0222222	 0.0
0.577778 0.0222222	 0.0
0.6 0	 0.0
0.622222 0	 0.0
0.622222 0.0222222	 0.0
0.6 0.0222222	 0.0
0.622222 0	 0.0
0.644444 0	 0.0
0.644444 0.0222222	 0.0
0.622222 0.0222222	 0.0
0.644444 0	 0.0
0.666667 0	 0.0
0.666667 0.0222222	 0.0
0.644444 0.0222222	 0.0
0.666667 0	 0.0
0.688889 0	 0.0
0.688889 0.0222222	 0.0
0.666667 0.0222222	 0.0
0.688889 0	 0.0
0.711111 0	 0.0
0.711111 0.0222222	 0.0
0.688889 0.0222222	 0.0
0.711111 0	 0.0
0.733333 0	 0.0
0.733333 0.0222222	 0.0
0.711111 0.0222222	 0.0
0.733333 0	 0.0
0.755556 0	 0.0
0.755556 0.0222222	 0.0
0.733333 0.0222222	 0.0
0.755556 0	 0.0
0.777778 0	 0.0
0.777778 0.0222222	 0.0
0.755556 0.0222222	 0.0
0.777778 0	 0.0
0.8 0	 0.0
0.8 0.0222222	 0.0
0.777778 0.0222222	 0.0
0.8 0	 0.0
0.822222 0	 0.0
0.822222 0.0222222	 0.0
0.8 0.0222222	 0.0
0.822222 0	 0.0
0.844444 0	 0.0
0.844444 0.0222222	 0.0
0.822222 0.0222222	 0.0
0.844444 0	 0.0
0.866667 0	 0.0
0.866667 0.0222222	 0.0
0.844444 0.0222222	 0.0
0.866667 0	 0.0
0.888889 0	 0.0
0.888889 0.0222222	 0.0
0.866667 0.0222222	 0.0
0.888889 0	 0.0
0.911111 0	 0.0
0.911111 0.0222222	 0.0
0.888889 0.0222222	 0.0
0.911111 0	 0.0
0.933333 0	 0.0
0.933333 0.0222222	 0.0
0.911111 0.0222222	 0.0
0.933333 0	 0.0
0.955556 0	 0.0
0.955556 0.0222222	 0.0
0.933333 0.0222222	 0.0
0.955556 0	 0.0
0.977778 0	 0.0
0.977778 0.0222222	 0.0
0.955556 0.0222222	 0.0
0.977778 0	 0.0
1 0	 0.0
1 0.0222222	 0.0
0.977778 0.0222222	 0.0
1 0	 0.0
1.02222 0	 0.0
1.02222 0.0222222	 0.0
1 0.0222222	 0.0
1.02222 0	 0.0
1.04444 0	 0.0
1.04444 0.0222222	 0.0
1.02222 0.0222222	 0.0
1.04444 0	 0.0
1.06667 0	 0.0
1.06667 0.0222222	 0.0
1.04444 0.0222222	 0.0
1.06667 0	 0.0
1.08889 0	 0.0
1.08889 0.0222222	 0.0
1.06667 0.0222222	 0.0
1.08889 0	 0.0
1.11111 0	 0.0
1.11111 0.0222222	 0.0
1.08889 0.0222222	 0.0
1.11111 0	 0.0
1.13333 0	 0.0
1.13333 0.0222222	 0.0
1.11111 0.0222222	 0.0
1.13333 0	 0.0
1.15556 0	 0.0
1.15556 0.0222222	 0.0
1.13333 0.0222222	 0.0
1.15556 0	 0.0
1.17778 0	 0.0
1.17778 0.0222222	 0.0
1.15556 0.0222222	 0.0
1.17778 0	 0.0
1.2 0	 0.0
1.2 0.0222222	 0.0
1.17778 0.0222222	 0.0
1.2 0	 0.0
1.22222 0	 0.0
1.22222 0.0222222	 0.0
1.2 0.0222222	 0.0
1.22222 0	 0.0
1.24444 0	 0.0
1.24444 0.0222222	 0.0
1.22222 0.0222222	 0.0
1.24444 0	 0.0
1.26667 0	 0.0
1.26667 0.0222222	 0.0
1.24444 0.0222222	 0.0
1.26667 0	 0.0
1.28889 0	 0.0
1.28889 0.0222222	 0.0
1.26667 0.0222222	 0.0
1.28889 0	 0.0
1.31111 0	 0.0
1.31111 0.0222222	 0.0
1.28889 0.0222222	 0.0
1.31111 0	 0.0
1.33333 0	 0.0
1.33333 0.0222222	 0.0
1.31111 0.0222222	 0.0
1.33333 0	 0.0
1.35556 0	 0.0
1.35556 0.0222222	 0.0
1.33333 0.0222222	 0.0
1.35556 0	 0.0
1.37778 0	 0.0
1.37778 0.0222222	 0.0
1.35556 0.0222222	 0.0
1.37778 0	 0.0
1.4 0	 0.0
1.4 0.0222222	 0.0
1.37778 0.0222222	 0.0
1.4 0	 0.0
1.42222 0	 0.0
1.42222 0.0222222	 0.0
1.4 0.0222222	 0.0
1.42222 0	 0.0
1.44444 0	 0.0
1.44444 0.0222222	 0.0
1.42222 0.0222222	 0.0
1.44444 0	 0.0
1.46667 0	 0.0
1.46667 0.0222222	 0.0
1.44444 0.0222222	 0.0
1.46667 0	 0.0
1.48889 0	 0.0
1.48889 0.0222222	 0.0
1.46667 0.0222222	 0.0
1.48889 0	 0.0
1.51111 0	 0.0
1.51111 0.0222222	 0.0
1.48889 0.0222222	 0.0
1.51111 0	 0.0
1.53333 0	 0.0
1.53333 0.0222222	 0.0
1.51111 0.0222222	 0.0
1.53333 0	 0.0
1.55556 0	 0.0
1.55556 0.0222222	 0.0
1.53333 0.0222222	 0.0
1.55556 0	 0.0
1.57778 0	 0.0
1.57778 0.0222222	 0.0
1.55556 0.0222222	 0.0
1.57778 0	 0.0
1.6 0	 0.0
1.6 0.0222222	 0.0
1.57778 0.0222222	 0.0
1.6 0	 0.0
1.62222 0	 0.0
1.62222 0.0222222	 0.0
1.6 0.0222222	 0.0
1.62222 0	 0.0
1.64444 0	 0.0
1.64444 0.0222222	 0.0
1.62222 0.0222222	 0.0
1.64444 0	 0.0
1.66667 0	 0.0
1.66667 0.0222222	 0.0
1.64444 0.0222222	 0.0
1.66667 0	 0.0
1.68889 0	 0.0
1.68889 0.0222222	 0.0
1.66667 0.0222222	 0.0
1.68889 0	 0.0
1.71111 0	 0.0
1.71111 0.0222222	 0.0
1.68889 0.0222222	 0.0
1.71111 0	 0.0
1.73333 0	 0.0
1.73333 0.0222222	 0.0
1.71111 0.0222222	 0.0
1.73333 0	 0.0
1.75556 0	 0.0
1.75556 0.0222222	 0.0
1.73333 0.0222222	 0.0
1.75556 0	 0.0
1.77778 0	 0.0
1.77778 0.0222222	 0.0
1.75556 0.0222222	 0.0
1.77778 0	 0.0
1.8 0	 0.0
1.8 0.0222222	 0.0
1.77778 0.0222222	 0.0
1.8 0	 0.0
1.82222 0	 0.0
1.82222 0.0222222	 0.0
1.8 0.0222222	 0.0
1.82222 0	 0.0
1.84444 0	 0.0
1.84444 0.0222222	 0.0
1.82222 0.0222222	 0.0
1.84444 0	 0.0
1.86667 0	 0.0
1.86667 0.0222222	 0.0
1.84444 0.0222222	 0.0
1.86667 0	 0.0
1.88889 0	 0.0
1.88889 0.0222222	 0.0
1.86667 0.0222222	 0.0
1.88889 0	 0.0
1.91111 0	 0.0
1.91111 0.0222222	 0.0
1.88889 0.0222222	 0.0
1.91111 0	 0.0
1.93333 0	 0.0
1.93333 0.0222222	 0.0
1.91111 0.0222222	 0.0
1.93333 0	 0.0
1.95556 0	 0.0
1.95556 0.0222222	 0.0
1.93333 0.0222222	 0.0
1.95556 0	 0.0
1.97778 0	 0.0
1.97778 0.0222222	 0.0
1.95556 0.0222222	 0.0
1.97778 0	 0.0
2 0	 0.0
2 0.0222222	 0.0
1.97778 0.0222222	 0.0
2 0	 0.0
2.02222 0	 0.0
2.02222 0.0222222	 0.0
2 0.0222222	 0.0
2.02222 0	 0.0
2.04444 0	 0.0
2.04444 0.0222222	 0.0
2.02222 0.0222222	 0.0
2.04444 0	 0.0
2.06667 0	 0.0
2.06667 0.0222222	 0.0
2.04444 0.0222222	 0.0
2.06667 0	 0.0
2.08889 0	 0.0
2.08889 0.0222222	 0.0
2.06667 0.0222222	 0.0
2.08889 0	 0.0
2.11111 0	 0.0
2.11111 0.0222222	 0.0
2.08889 0.0222222	 0.0
2.11111 0	 0.0
2.13333 0	 0.0
2.13333 0.0222222	 0.0
2.11111 0.0222222	 0.0
2.13333 0	 0.0
2.15556 0	 0.0
2.15556 0.0222222	 0.0
2.13333 0.0222222	 0.0
2.15556 0	 0.0
2.17778 0	 0.0
2.17778 0.0222222	 0.0
2.15556 0.0222222	 0.0
2.17778 0	 0.0
2.2 0	 0.0
2.2 0.0222222	 0.0
2.17778 0.0222222	 0.0
2.2 0	 0.0
2.22222 0	 0.0
2.22222 0.0222222	 0.0
2.2 0.0222222	 0.0
2.22222 0	 0.0
2.24444 0	 0.0
2.24444 0.0222222	 0.0
2.22222 0.0222222	 0.0
2.24444 0	 0.0
2.26667 0	 0.0
2.26667 0.0222222	 0.0
2.24444 0.0222222	 0.0
2.26667 0	 0.0
2.28889 0	 0.0
2.28889 0.0222222	 0.0
2.26667 0.0222222	 0.0
2.28889 0	 0.0
2.31111 0	 0.0
2.31111 0.0222222	 0.0
2.28889 0.0222222	 0.0
2.31111 0	 0.0
2.33333 0	 0.0
2.33333 0.0222222	 0.0
2.31111 0.0222222	 0.0
2.33333 0	 0.0
2.35556 0	 0.0
2.35556 0.0222222	 0.0
2.33333 0.0222222	 0.0
2.35556 0	 0.0
2.37778 0	 0.0
2.37778 0.0222222	 0.0
2.35556 0.0222222	 0.0
2.37778 0	 0.0
2.4 0	 0.0
2.4 0.0222222	 0.0
2.37778 0.0222222	 0.0
2.4 0	 0.0
2.42222 0	 0.0
2.42222 0.0222222	 0.0
2.4 0.0222222	 0.0
2.42222 0	 0.0
2.44444 0	 0.0
2.44444 0.0222222	 0.0
2.42222 0.0222222	 0.0
2.44444 0	 0.0
2.46667 0	 0.0
2.46667 0.0222222	 0.0
2.44444 0.0222222	 0.0
2.46667 0	 0.0
2.48889 0	 0.0
2.48889 0.0222222	 0.0
2.46667 0.0222222	 0.0
2.48889 0	 0.0
2.51111 0	 0.0
2.51111 0.0222222	 0.0
2.48889 0.0222222	 0.0
2.51111 0	 0.0
2.53333 0	 0.0
2.53333 0.0222222	 0.0
2.51111 0.0222222	 0.0
2.53333 0	 0.0
2.55556 0	 0.0
2.55556 0.0222222	 0.0
2.53333 0.0222222	 0.0
2.55556 0	 0.0
2.57778 0	 0.0
2.57778 0.0222222	 0.0
2.55556 0.0222222	 0.0
2.57778 0	 0.0
2.6 0	 0.0
2.6 0.0222222	 0.0
2.57778 0.0222222	 0.0
2.6 0	 0.0
2.62222 0	 0.0
2.62222 0.0222222	 0.0
2.6 0.0222222	 0.0
2.62222 0	 0.0
2.64444 0	 0.0
2.64444 0.0222222	 0.0
2.62222 0.0222222	 0.0
2.64444 0	 0.0
2.66667 0	 0.0
2.66667 0.0222222	 0.0
2.64444 0.0222222	 0.0
2.66667 0	 0.0
2.68889 0	 0.0
2.68889 0.0222222	 0.0
2.66667 0.0222222	 0.0
2.68889 0	 0.0
2.71111 0	 0.0
2.71111 0.0222222	 0.0
2.68889 0.0222222	 0.0
2.71111 0	 0.0
2.73333 0	 0.0
2.73333 0.0222222	 0.0
2.71111 0.0222222	 0.0
2.73333 0	 0.0
2.75556 0	 0.0
2.75556 0.0222222	 0.0
2.73333 0.0222222	 0.0
2.75556 0	 0.0
2.77778 0	 0.0
2.77778 0.0222222	 0.0
2.75556 0.0222222	 0.0
2.77778 0	 0.0
2.8 0	 0.0
2.8 0.0222222	 0.0
2.77778 0.0222222	 0.0
2.8 0	 0.0
2.82222 0	 0.0
2.82222 0.0222222	 0.0
2.8 0.0222222	 0.0
2.82222 0	 0.0
2.84444 0	 0.0
2.84444 0.0222222	 0.0
2.82222 0.0222222	 0.0
2.84444 0	 0.0
2.86667 0	 0.0
2.86667 0.0222222	 0.0
2.84444 0.0222222	 0.0
2.86667 0	 0.0
2.88889 0	 0.0
2.88889 0.0222222	 0.0
2.86667 0.0222222	 0.0
2.88889 0	 0.0
2.91111 0	 0.0
2.91111 0.0222222	 0.0
2.88889 0.0222222	 0.0
2.91111 0	 0.0
[...]
POINT_DATA 23440
SCALARS levelset_first float
LOOKUP_TABLE default
-2.93848
-2.86705
-2.84088
-2.91231
-2.86705
-2.79662
-2.77044
-2.84088
-2.79662
-2.72717
-2.701
-2.77044
-2.72717
-2.65871
-2.63253
-2.701
-2.65871
-2.59123
-2.56506
-2.63253
-2.59123
-2.52475
-2.49857
-2.56506
-2.52475
-2.45925
-2.43307
-2.49857
-2.45925
-2.39473
-2.36856
-2.43307
-2.39473
-2.33121
-2.30504
-2.36856
-2.33121
-2.26867
-2.2425
-2.30504
-2.26867
-2.20713
-2.18095
-2.2425
-2.20713
-2.14657
-2.12039
-2.18095
-2.14657
-2.08699
-2.06082
-2.12039
-2.08699
-2.02841
-2.00223
-2.06082
-2.02841
-1.97081
-1.94464
-2.00223
-1.97081
-1.9142
-1.88803
-1.94464
-1.9142
-1.85858
-1.8324
-1.88803
-1.85858
-1.80394
-1.77777
-1.8324
-1.80394
-1.7503
-1.72412
-1.77777
-1.7503
-1.69764
-1.67146
-1.72412
-1.69764
-1.64596
-1.61979
-1.67146
-1.64596
-1.59528
-1.56911
-1.61979
-1.59528
-1.54558
-1.51941
-1.56911
-1.54558
-1.49687
-1.4707
-1.51941
-1.49687
-1.44915
-1.42298
-1.4707
-1.44915
-1.40242
-1.37625
-1.42298
-1.40242
-1.35667
-1.3305
-1.37625
-1.35667
-1.31192
-1.28574
-1.3305
-1.31192
-1.26814
-1.24197
-1.28574
-1.26814
-1.22536
-1.19919
-1.24197
-1.22536
-1.18357
-1.15739
-1.19919
-1.18357
-1.14276
-1.11659
-1.15739
-1.14276
-1.10294
-1.07677
-1.11659
-1.10294
-1.06411
-1.03793
-1.07677
-1.06411
-1.02626
-1.00009
-1.03793
-1.02626
-0.989405
-0.963232
-1.00009
-0.989405
-0.953536
-0.927363
-0.963232
-0.953536
-0.918654
-0.892481
-0.927363
-0.918654
-0.88476
-0.858587
-0.892481
-0.88476
-0.851853
-0.825681
-0.858587
-0.851853
-0.819935
-0.793762
-0.825681
-0.819935
-0.789004
-0.762831
-0.793762
-0.789004
-0.75906
-0.732887
-0.762831
-0.75906
-0.730104
-0.703932
-0.732887
-0.730104
-0.702136
-0.675963
-0.703932
-0.702136
-0.675156
-0.648983
-0.675963
-0.675156
-0.649163
-0.62299
-0.648983
-0.649163
-0.624158
-0.597985
-0.62299
-0.624158
-0.60014
-0.573967
-0.597985
-0.60014
-0.57711
-0.550938
-0.573967
-0.57711
-0.555068
-0.528895
-0.550938
-0.555068
-0.534014
-0.507841
-0.528895
-0.534014
-0.513947
-0.487774
-0.507841
-0.513947
-0.494868
-0.468695
-0.487774
-0.494868
-0.476776
-0.450603
-0.468695
-0.476776
-0.459672
-0.433499
-0.450603
-0.459672
-0.443556
-0.417383
-0.433499
-0.443556
-0.428427
-0.402254
-0.417383
-0.428427
-0.414286
-0.388113
-0.402254
-0.414286
-0.401133
-0.37496
-0.388113
-0.401133
-0.388967
-0.362794
-0.37496
-0.388967
-0.377789
-0.351616
-0.362794
-0.377789
-0.367599
-0.341426
-0.351616
-0.367599
-0.358396
-0.332223
-0.341426
-0.358396
-0.350181
-0.324008
-0.332223
-0.350181
-0.342954
-0.316781
-0.324008
-0.342954
-0.336714
-0.310541
-0.316781
-0.336714
-0.331462
-0.305289
-0.310541
-0.331462
-0.327198
-0.301025
-0.305289
-0.327198
-0.323921
-0.297748
-0.301025
-0.323921
-0.321632
-0.295459
-0.297748
-0.321632
-0.32033
-0.294157
-0.295459
-0.32033
-0.320016
-0.293844
-0.294157
-0.320016
-0.32069
-0.294517
-0.293844
-0.32069
-0.322352
-0.296179
-0.294517
-0.322352
-0.325001
-0.298828
-0.296179
-0.325001
-0.328638
-0.302465
-0.298828
-0.328638
-0.333262
-0.307089
-0.302465
-0.333262
-0.338874
-0.312701
-0.307089
-0.338874
-0.345474
-0.319301
-0.312701
-0.345474
-0.353062
-0.326889
-0.319301
-0.353062
-0.361637
-0.335464
-0.326889
-0.361637
-0.371199
-0.345027
-0.335464
-0.371199
-0.38175
-0.355577
-0.345027
-0.38175
-0.393288
-0.367115
-0.355577
-0.393288
-0.405813
-0.379641
-0.367115
-0.405813
-0.419327
-0.393154
-0.379641
-0.419327
-0.433828
-0.407655
-0.393154
-0.433828
-0.449317
-0.423144
-0.407655
-0.449317
-0.465793
-0.43962
-0.423144
-0.465793
-0.483257
-0.457084
-0.43962
-0.483257
-0.501708
-0.475536
-0.457084
-0.501708
-0.521148
-0.494975
-0.475536
-0.521148
-0.541575
-0.515402
-0.494975
-0.541575
-0.562989
-0.536816
-0.515402
-0.562989
-0.585391
-0.559219
-0.536816
-0.585391
-0.608781
-0.582609
-0.559219
-0.608781
-0.633159
-0.606986
-0.582609
-0.633159
-0.658524
-0.632351
-0.606986
-0.658524
-0.684877
-0.658704
-0.632351
-0.684877
-0.712218
-0.686045
-0.658704
-0.712218
-0.740546
-0.714373
-0.686045
-0.740546
-0.769862
-0.743689
-0.714373
-0.769862
-0.800165
-0.773992
-0.743689
-0.800165
-0.831456
-0.805283
-0.773992
-0.831456
-0.863735
-0.837562
-0.805283
-0.863735
-0.897001
-0.870829
-0.837562
-0.897001
-0.931255
-0.905083
-0.870829
-0.931255
-0.966497
-0.940324
-0.905083
-0.966497
-1.00273
-0.976554
-0.940324
-1.00273
-1.03994
-1.01377
-0.976554
-1.03994
-1.07815
-1.05198
-1.01377
-1.07815
-1.11734
-1.09117
-1.05198
-1.11734
-1.15752
-1.13135
-1.09117
-1.15752
-1.19869
-1.17252
-1.13135
-1.19869
-1.24084
-1.21467
-1.17252
-1.24084
-1.28399
-1.25781
-1.21467
-1.28399
-1.32812
-1.30194
-1.25781
-1.32812
-1.37324
-1.34706
-1.30194
-1.37324
-1.41934
-1.39317
-1.34706
-1.41934
-1.46644
-1.44026
-1.39317
-1.46644
-1.51452
-1.48834
-1.44026
-1.51452
-1.56359
-1.53741
-1.48834
-1.56359
-1.61364
-1.58747
-1.53741
-1.61364
-1.66469
-1.63851
-1.58747
-1.66469
-1.71672
-1.69055
-1.63851
-1.71672
-1.76974
-1.74356
-1.69055
-1.76974
-1.82374
-1.79757
-1.74356
-1.82374
-1.87874
-1.85257
-1.79757
-1.87874
-1.93472
-1.90855
-1.85257
-1.93472
-1.99169
-1.96552
-1.90855
-1.99169
-2.04965
-2.02348
-1.96552
-2.04965
-2.1086
-2.08242
-2.02348
-2.1086
-2.16853
-2.14236
-2.08242
-2.16853
-2.22945
-2.20328
-2.14236
-2.91231
-2.84088
-2.8157
-2.88712
-2.84088
-2.77044
-2.74526
-2.8157
-2.77044
-2.701
-2.67581
-2.74526
-2.701
-2.63253
-2.60735
-2.67581
-2.63253
-2.56506
-2.53987
-2.60735
-2.56506
-2.49857
-2.47339
-2.53987
-2.49857
-2.43307
-2.40789
-2.47339
-2.43307
-2.36856
-2.34338
-2.40789
-2.36856
-2.30504
-2.27985
-2.34338
-2.30504
-2.2425
-2.21732
-2.27985
-2.2425
-2.18095
-2.15577
-2.21732
-2.18095
-2.12039
-2.09521
-2.15577
-2.12039
-2.06082
-2.03563
-2.09521
-2.06082
-2.00223
-1.97705
-2.03563
-2.00223
-1.94464
-1.91945
-1.97705
-1.94464
-1.88803
-1.86284
-1.91945
-1.88803
-1.8324
-1.80722
-1.86284
-1.8324
-1.77777
-1.75258
-1.80722
-1.77777
-1.72412
-1.69894
-1.75258
-1.72412
-1.67146
-1.64628
-1.69894
-1.67146
-1.61979
-1.59461
-1.64628
-1.61979
-1.56911
-1.54392
-1.59461
-1.56911
-1.51941
-1.49423
-1.54392
-1.51941
-1.4707
-1.44552
-1.49423
-1.4707
-1.42298
-1.3978
-1.44552
-1.42298
-1.37625
-1.35106
-1.3978
-1.37625
-1.3305
-1.30532
-1.35106
-1.3305
-1.28574
-1.26056
-1.30532
-1.28574
-1.24197
-1.21679
-1.26056
-1.24197
-1.19919
-1.174
-1.21679
-1.19919
-1.15739
-1.13221
-1.174
-1.15739
-1.11659
-1.0914
-1.13221
-1.11659
-1.07677
-1.05158
-1.0914
-1.07677
-1.03793
-1.01275
-1.05158
-1.03793
-1.00009
-0.974904
-1.01275
-1.00009
-0.963232
-0.938047
-0.974904
-0.963232
-0.927363
-0.902178
-0.938047
-0.927363
-0.892481
-0.867296
-0.902178
-0.892481
-0.858587
-0.833402
-0.867296
-0.858587
-0.825681
-0.800495
-0.833402
-0.825681
-0.793762
-0.768577
-0.800495
-0.793762
-0.762831
-0.737646
-0.768577
-0.762831
-0.732887
-0.707702
-0.737646
-0.732887
-0.703932
-0.678746
-0.707702
-0.703932
-0.675963
-0.650778
-0.678746
-0.675963
-0.648983
-0.623798
-0.650778
-0.648983
-0.62299
-0.597805
-0.623798
-0.62299
-0.597985
-0.5728
-0.597805
-0.597985
-0.573967
-0.548782
-0.5728
-0.573967
-0.550938
-0.525752
-0.548782
-0.550938
-0.528895
-0.50371
-0.525752
-0.528895
-0.507841
-0.482656
-0.50371
-0.507841
-0.487774
-0.462589
-0.482656
-0.487774
-0.468695
-0.44351
-0.462589
-0.468695
-0.450603
-0.425418
-0.44351
-0.450603
-0.433499
-0.408314
-0.425418
-0.433499
-0.417383
-0.392198
-0.408314
-0.417383
-0.402254
-0.377069
-0.392198
-0.402254
-0.388113
-0.362928
-0.377069
-0.388113
-0.37496
-0.349775
-0.362928
-0.37496
-0.362794
-0.337609
-0.349775
-0.362794
-0.351616
-0.326431
-0.337609
-0.351616
-0.341426
-0.316241
-0.326431
-0.341426
-0.332223
-0.307038
-0.316241
-0.332223
-0.324008
-0.298823
-0.307038
-0.324008
-0.316781
-0.291596
-0.298823
-0.316781
-0.310541
-0.285356
-0.291596
-0.310541
-0.305289
-0.280104
-0.285356
-0.305289
-0.301025
-0.27584
-0.280104
-0.301025
-0.297748
-0.272563
-0.27584
-0.297748
-0.295459
-0.270274
-0.272563
-0.295459
-0.294157
-0.268972
-0.270274
-0.294157
-0.293844
-0.268658
-0.268972
-0.293844
-0.294517
-0.269332
-0.268658
-0.294517
-0.296179
-0.270994
-0.269332
-0.296179
-0.298828
-0.273643
-0.270994
-0.298828
-0.302465
-0.27728
-0.273643
-0.302465
-0.307089
-0.281904
-0.27728
-0.307089
-0.312701
-0.287516
-0.281904
-0.312701
-0.319301
-0.294116
-0.287516
-0.319301
-0.326889
-0.301704
-0.294116
-0.326889
-0.335464
-0.310279
-0.301704
-0.335464
-0.345027
-0.319841
-0.310279
-0.345027
-0.355577
-0.330392
-0.319841
-0.355577
-0.367115
-0.34193
-0.330392
-0.367115
-0.379641
-0.354455
-0.34193
-0.379641
-0.393154
-0.367969
-0.354455
-0.393154
-0.407655
-0.38247
-0.367969
-0.407655
-0.423144
-0.397958
-0.38247
-0.423144
-0.43962
-0.414435
-0.397958
-0.43962
-0.457084
-0.431899
-0.414435
-0.457084
-0.475536
-0.45035
-0.431899
-0.475536
-0.494975
-0.46979
-0.45035
-0.494975
-0.515402
-0.490217
-0.46979
-0.515402
-0.536816
-0.511631
-0.490217
-0.536816
-0.559219
-0.534033
-0.511631
-0.559219
-0.582609
-0.557423
-0.534033
-0.582609
-0.606986
-0.581801
-0.557423
-0.606986
-0.632351
-0.607166
-0.581801
-0.632351
-0.658704
-0.633519
-0.607166
-0.658704
-0.686045
-0.66086
-0.633519
-0.686045
-0.714373
-0.689188
-0.66086
-0.714373
-0.743689
-0.718504
-0.689188
-0.743689
-0.773992
-0.748807
-0.718504
-0.773992
-0.805283
-0.780098
-0.748807
-0.805283
-0.837562
-0.812377
-0.780098
-0.837562
-0.870829
-0.845643
-0.812377
-0.870829
-0.905083
-0.879897
-0.845643
-0.905083
-0.940324
-0.915139
-0.879897
-0.940324
-0.976554
-0.951369
-0.915139
-0.976554
-1.01377
-0.988586
-0.951369
-1.01377
-1.05198
-1.02679
-0.988586
-1.05198
-1.09117
-1.06598
-1.02679
-1.09117
-1.13135
-1.10616
-1.06598
-1.13135
-1.17252
-1.14733
-1.10616
-1.17252
-1.21467
-1.18949
-1.14733
-1.21467
-1.25781
-1.23263
-1.18949
-1.25781
-1.30194
-1.27676
-1.23263
-1.30194
-1.34706
-1.32188
-1.27676
-1.34706
-1.39317
-1.36798
-1.32188
-1.39317
-1.44026
-1.41508
-1.36798
-1.44026
-1.48834
-1.46316
-1.41508
-1.48834
-1.53741
-1.51223
-1.46316
-1.53741
-1.58747
-1.56228
-1.51223
-1.58747
-1.63851
-1.61333
-1.56228
-1.63851
-1.69055
-1.66536
-1.61333
-1.69055
-1.74356
-1.71838
-1.66536
-1.74356
-1.79757
-1.77239
-1.71838
-1.79757
-1.85257
-1.82738
-1.77239
-1.85257
-1.90855
-1.88336
-1.82738
-1.90855
-1.96552
-1.94033
-1.88336
-1.96552
-2.02348
-1.99829
-1.94033
-2.02348
-2.08242
-2.05724
-1.99829
-2.08242
-2.14236
-2.11717
-2.05724
-2.14236
-2.20328
-2.17809
-2.11717
-2.88712
-2.8157
-2.7915
-2.86292
-2.8157
-2.74526
-2.72106
-2.7915
-2.74526
-2.67581
-2.65161
-2.72106
-2.67581
-2.60735
-2.58315
-2.65161
-2.60735
-2.53987
-2.51568
-2.58315
-2.53987
-2.47339
-2.44919
-2.51568
-2.47339
-2.40789
-2.38369
-2.44919
-2.40789
-2.34338
-2.31918
-2.38369
-2.34338
-2.27985
-2.25566
-2.31918
-2.27985
-2.21732
-2.19312
-2.25566
-2.21732
-2.15577
-2.13157
-2.19312
-2.15577
-2.09521
-2.07101
-2.13157
-2.09521
-2.03563
-2.01144
-2.07101
-2.03563
-1.97705
-1.95285
-2.01144
-1.97705
-1.91945
-1.89525
-1.95285
-1.91945
-1.86284
-1.83864
-1.89525
-1.86284
-1.80722
-1.78302
-1.83864
-1.80722
-1.75258
-1.72839
-1.78302
-1.75258
-1.69894
-1.67474
-1.72839
-1.69894
-1.64628
-1.62208
-1.67474
-1.64628
-1.59461
-1.57041
-1.62208
-1.59461
-1.54392
-1.51972
-1.57041
-1.54392
-1.49423
-1.47003
-1.51972
-1.49423
-1.44552
-1.42132
-1.47003
-1.44552
-1.3978
-1.3736
-1.42132
-1.3978
-1.35106
-1.32686
-1.3736
-1.35106
-1.30532
-1.28112
-1.32686
-1.30532
-1.26056
-1.23636
-1.28112
-1.26056
-1.21679
-1.19259
-1.23636
-1.21679
-1.174
-1.14981
-1.19259
-1.174
-1.13221
-1.10801
-1.14981
-1.13221
-1.0914
-1.0672
-1.10801
-1.0914
-1.05158
-1.02738
-1.0672
-1.05158
-1.01275
-0.988551
-1.02738
-1.01275
-0.974904
-0.950706
-0.988551
-0.974904
-0.938047
-0.913849
-0.950706
-0.938047
-0.902178
-0.87798
-0.913849
-0.902178
-0.867296
-0.843098
-0.87798
-0.867296
-0.833402
-0.809204
-0.843098
-0.833402
-0.800495
-0.776298
-0.809204
-0.800495
-0.768577
-0.744379
-0.776298
-0.768577
-0.737646
-0.713448
-0.744379
-0.737646
-0.707702
-0.683505
-0.713448
-0.707702
-0.678746
-0.654549
-0.683505
-0.678746
-0.650778
-0.626581
-0.654549
-0.650778
-0.623798
-0.5996
-0.626581
-0.623798
-0.597805
-0.573607
-0.5996
-0.597805
-0.5728
-0.548602
-0.573607
-0.5728
-0.548782
-0.524585
-0.548602
-0.548782
-0.525752
-0.501555
-0.524585
-0.525752
-0.50371
-0.479513
-0.501555
-0.50371
-0.482656
-0.458458
-0.479513
-0.482656
-0.462589
-0.438391
-0.458458
-0.462589
-0.44351
-0.419312
-0.438391
-0.44351
-0.425418
-0.40122
-0.419312
-0.425418
-0.408314
-0.384117
-0.40122
-0.408314
-0.392198
-0.368
-0.384117
-0.392198
-0.377069
-0.352872
-0.368
-0.377069
-0.362928
-0.338731
-0.352872
-0.362928
-0.349775
-0.325577
-0.338731
-0.349775
-0.337609
-0.313412
-0.325577
-0.337609
-0.326431
-0.302234
-0.313412
-0.326431
-0.316241
-0.292043
-0.302234
-0.316241
-0.307038
-0.282841
-0.292043
-0.307038
-0.298823
-0.274626
-0.282841
-0.298823
-0.291596
-0.267398
-0.274626
-0.291596
-0.285356
-0.261158
-0.267398
-0.285356
-0.280104
-0.255906
-0.261158
-0.280104
-0.27584
-0.251642
-0.255906
-0.27584
-0.272563
-0.248365
-0.251642
-0.272563
-0.270274
-0.246076
-0.248365
-0.270274
-0.268972
-0.244775
-0.246076
-0.268972
-0.268658
-0.244461
-0.244775
-0.268658
-0.269332
-0.245135
-0.244461
-0.269332
-0.270994
-0.246796
-0.245135
-0.270994
-0.273643
-0.249445
-0.246796
-0.273643
-0.27728
-0.253082
-0.249445
-0.27728
-0.281904
-0.257707
-0.253082
-0.281904
-0.287516
-0.263319
-0.257707
-0.287516
-0.294116
-0.269919
-0.263319
-0.294116
-0.301704
-0.277506
-0.269919
-0.301704
-0.310279
-0.286081
-0.277506
-0.310279
-0.319841
-0.295644
-0.286081
-0.319841
-0.330392
-0.306194
-0.295644
-0.330392
-0.34193
-0.317732
-0.306194
-0.34193
-0.354455
-0.330258
-0.317732
-0.354455
-0.367969
-0.343771
-0.330258
-0.367969
-0.38247
-0.358272
-0.343771
-0.38247
-0.397958
-0.373761
-0.358272
-0.397958
-0.414435
-0.390237
-0.373761
-0.414435
-0.431899
-0.407701
-0.390237
-0.431899
-0.45035
-0.426153
-0.407701
-0.45035
-0.46979
-0.445592
-0.426153
-0.46979
-0.490217
-0.466019
-0.445592
-0.490217
-0.511631
-0.487434
-0.466019
-0.511631
-0.534033
-0.509836
-0.487434
-0.534033
-0.557423
-0.533226
-0.509836
-0.557423
-0.581801
-0.557603
-0.533226
-0.581801
-0.607166
-0.582969
-0.557603
-0.607166
-0.633519
-0.609321
-0.582969
-0.633519
-0.66086
-0.636662
-0.609321
-0.66086
-0.689188
-0.66499
-0.636662
-0.689188
-0.718504
-0.694306
-0.66499
-0.718504
-0.748807
-0.724609
-0.694306
-0.748807
-0.780098
-0.755901
-0.724609
-0.780098
-0.812377
-0.788179
-0.755901
-0.812377
-0.845643
-0.821446
-0.788179
-0.845643
-0.879897
-0.8557
-0.821446
-0.879897
-0.915139
-0.890942
-0.8557
-0.915139
-0.951369
-0.927171
-0.890942
-0.951369
-0.988586
-0.964388
-0.927171
-0.988586
-1.02679
-1.00259
-0.964388
-1.02679
-1.06598
-1.04179
-1.00259
-1.06598
-1.10616
-1.08197
-1.04179
-1.10616
-1.14733
-1.12313
-1.08197
-1.14733
-1.18949
-1.16529
-1.12313
-1.18949
-1.23263
-1.20843
-1.16529
-1.23263
-1.27676
-1.25256
-1.20843
-1.27676
-1.32188
-1.29768
-1.25256
-1.32188
-1.36798
-1.34379
-1.29768
-1.36798
-1.41508
-1.39088
-1.34379
-1.41508
-1.46316
-1.43896
-1.39088
-1.46316
-1.51223
-1.48803
-1.43896
-1.51223
-1.56228
-1.53809
-1.48803
-1.56228
-1.61333
-1.58913
-1.53809
-1.61333
-1.66536
-1.64116
-1.58913
-1.66536
-1.71838
-1.69418
-1.64116
-1.71838
-1.77239
-1.74819
-1.69418
-1.77239
-1.82738
-1.80318
-1.74819
-1.82738
-1.88336
-1.85917
-1.80318
-1.88336
-1.94033
-1.91614
-1.85917
-1.94033
-1.99829
-1.97409
-1.91614
-1.99829
-2.05724
-2.03304
-1.97409
-2.05724
-2.11717
-2.09297
-2.03304
-2.11717
-2.17809
-2.15389
-2.09297
-2.86292
-2.7915
-2.76829
-2.83971
-2.7915
-2.72106
-2.69785
-2.76829
-2.72106
-2.65161
-2.6284
-2.69785
-2.65161
-2.58315
-2.55994
-2.6284
-2.58315
-2.51568
-2.49247
-2.55994
-2.51568
-2.44919
-2.42598
-2.49247
-2.44919
-2.38369
-2.36048
-2.42598
-2.38369
-2.31918
-2.29597
-2.36048
-2.31918
-2.25566
-2.23245
-2.29597
-2.25566
-2.19312
-2.16991
-2.23245
-2.19312
-2.13157
-2.10836
-2.16991
-2.13157
-2.07101
-2.0478
-2.10836
-2.07101
-2.01144
-1.98823
-2.0478
-2.01144
-1.95285
-1.92964
-1.98823
-1.95285
-1.89525
-1.87204
-1.92964
-1.89525
-1.83864
-1.81543
-1.87204
-1.83864
-1.78302
-1.75981
-1.81543
-1.78302
-1.72839
-1.70518
-1.75981
-1.72839
-1.67474
-1.65153
-1.70518
-1.67474
-1.62208
-1.59887
-1.65153
-1.62208
-1.57041
-1.5472
-1.59887
-1.57041
-1.51972
-1.49651
-1.5472
-1.51972
-1.47003
-1.44682
-1.49651
-1.47003
-1.42132
-1.39811
-1.44682
-1.42132
-1.3736
-1.35039
-1.39811
-1.3736
-1.32686
-1.30365
-1.35039
-1.32686
-1.28112
-1.25791
-1.30365
-1.28112
-1.23636
-1.21315
-1.25791
-1.23636
-1.19259
-1.16938
-1.21315
-1.19259
-1.14981
-1.1266
-1.16938
-1.14981
-1.10801
-1.0848
-1.1266
-1.10801
-1.0672
-1.04399
-1.0848
-1.0672
-1.02738
-1.00417
-1.04399
-1.02738
-0.988551
-0.965341
-1.00417
-0.988551
-0.950706
-0.927497
-0.965341
-0.950706
-0.913849
-0.89064
-0.927497
-0.913849
-0.87798
-0.85477
-0.89064
-0.87798
-0.843098
-0.819888
-0.85477
-0.843098
-0.809204
-0.785994
-0.819888
-0.809204
-0.776298
-0.753088
-0.785994
-0.776298
-0.744379
-0.721169
-0.753088
-0.744379
-0.713448
-0.690238
-0.721169
-0.713448
-0.683505
-0.660295
-0.690238
-0.683505
-0.654549
-0.631339
-0.660295
-0.654549
-0.626581
-0.603371
-0.631339
-0.626581
-0.5996
-0.57639
-0.603371
-0.5996
-0.573607
-0.550398
-0.57639
-0.573607
-0.548602
-0.525392
-0.550398
-0.548602
-0.524585
-0.501375
-0.525392
-0.524585
-0.501555
-0.478345
-0.501375
-0.501555
-0.479513
-0.456303
-0.478345
-0.479513
-0.458458
-0.435248
-0.456303
-0.458458
-0.438391
-0.415181
-0.435248
-0.438391
-0.419312
-0.396102
-0.415181
-0.419312
-0.40122
-0.378011
-0.396102
-0.40122
-0.384117
-0.360907
-0.378011
-0.384117
-0.368
-0.34479
-0.360907
-0.368
-0.352872
-0.329662
-0.34479
-0.352872
-0.338731
-0.315521
-0.329662
-0.338731
-0.325577
-0.302367
-0.315521
-0.325577
-0.313412
-0.290202
-0.302367
-0.313412
-0.302234
-0.279024
-0.290202
-0.302234
-0.292043
-0.268833
-0.279024
-0.292043
-0.282841
-0.259631
-0.268833
-0.282841
-0.274626
-0.251416
-0.259631
-0.274626
-0.267398
-0.244188
-0.251416
-0.267398
-0.261158
-0.237949
-0.244188
-0.261158
-0.255906
-0.232697
-0.237949
-0.255906
-0.251642
-0.228432
-0.232697
-0.251642
-0.248365
-0.225155
-0.228432
-0.248365
-0.246076
-0.222866
-0.225155
-0.246076
-0.244775
-0.221565
-0.222866
-0.244775
-0.244461
-0.221251
-0.221565
-0.244461
-0.245135
-0.221925
-0.221251
-0.245135
-0.246796
-0.223586
-0.221925
-0.246796
-0.249445
-0.226235
-0.223586
-0.249445
-0.253082
-0.229872
-0.226235
-0.253082
-0.257707
-0.234497
-0.229872
-0.257707
-0.263319
-0.240109
-0.234497
-0.263319
-0.269919
-0.246709
-0.240109
-0.269919
-0.277506
-0.254296
-0.246709
-0.277506
-0.286081
-0.262871
-0.254296
-0.286081
-0.295644
-0.272434
-0.262871
-0.295644
-0.306194
-0.282984
-0.272434
-0.306194
-0.317732
-0.294522
-0.282984
-0.317732
-0.330258
-0.307048
-0.294522
-0.330258
-0.343771
-0.320561
-0.307048
-0.343771
-0.358272
-0.335062
-0.320561
-0.358272
-0.373761
-0.350551
-0.335062
-0.373761
-0.390237
-0.367027
-0.350551
-0.390237
-0.407701
-0.384491
-0.367027
-0.407701
-0.426153
-0.402943
-0.384491
-0.426153
-0.445592
-0.422382
-0.402943
-0.445592
-0.466019
-0.442809
-0.422382
-0.466019
-0.487434
-0.464224
-0.442809
-0.487434
-0.509836
-0.486626
-0.464224
-0.509836
-0.533226
-0.510016
-0.486626
-0.533226
-0.557603
-0.534394
-0.510016
-0.557603
-0.582969
-0.559759
-0.534394
-0.582969
-0.609321
-0.586112
-0.559759
-0.609321
-0.636662
-0.613452
-0.586112
-0.636662
-0.66499
-0.64178
-0.613452
-0.66499
-0.694306
-0.671096
-0.64178
-0.694306
-0.724609
-0.7014
-0.671096
-0.724609
-0.755901
-0.732691
-0.7014
-0.755901
-0.788179
-0.764969
-0.732691
-0.788179
-0.821446
-0.798236
-0.764969
-0.821446
-0.8557
-0.83249
-0.798236
-0.8557
-0.890942
-0.867732
-0.83249
-0.890942
-0.927171
-0.903961
-0.867732
-0.927171
-0.964388
-0.941178
-0.903961
-0.964388
-1.00259
-0.979383
-0.941178
-1.00259
-1.04179
-1.01858
-0.979383
-1.04179
-1.08197
-1.05876
-1.01858
-1.08197
-1.12313
-1.09992
-1.05876
-1.12313
-1.16529
-1.14208
-1.09992
-1.16529
-1.20843
-1.18522
-1.14208
-1.20843
-1.25256
-1.22935
-1.18522
-1.25256
-1.29768
-1.27447
-1.22935
-1.29768
-1.34379
-1.32058
-1.27447