# vtk DataFile Version 1.0
unstructured Grid
ASCII
DATASET UNSTRUCTURED_GRID
POINTS 23448 float 
0 0	 0.0
0.0222222 0	 0.0
0.0222222 0.0222222	 0.0
0 0.0222222	 0.0
0.0222222 0	 0.0
0.0444444 0	 0.0
0.0444444 0.0222222	 0.0
0.0222222 0.0222222	 0.0
0.0444444 0	 0.0
0.0666667 0	 0.0
0.0666667 0.0222222	 0.0
0.0444444 0.0222222	 0.0
0.0666667 0	 0.0
0.0888889 0	 0.0
0.0888889 0.0222222	 0.0
0.0666667 0.0222222	 0.0
0.0888889 0	 0.0
0.111111 0	 0.0
0.111111 0.0222222	 0.0
0.0888889 0.0222222	 0.0
0.111111 0	 0.0
0.133333 0	 0.0
0.133333 0.0222222	 0.0
0.111111 0.0222222	 0.0
0.133333 0	 0.0
0.155556 0	 0.0
0.155556 0.0222222	 0.0
0.133333 0.0222222	 0.0
0.155556 0	 0.0
0.177778 0	 0.0
0.177778 0.0222222	 0.0
0.155556 0.0222222	 0.0
0.177778 0	 0.0
0.2 0	 0.0
0.2 0.0222222	 0.0
0.177778 0.0222222	 0.0
0.2 0	 0.0
0.222222 0	 0.0
0.222222 0.0222222	 0.0
0.2 0.0222222	 0.0
0.222222 0	 0.0
0.244444 0	 0.0
0.244444 0.0222222	 0.0
0.222222 0.0222222	 0.0
0.244444 0	 0.0
0.266667 0	 0.0
0.266667 0.0222222	 0.0
0.244444 0.0222222	 0.0
0.266667 0	 0.0
0.288889 0	 0.0
0.288889 0.0222222	 0.0
0.266667 0.0222222	 0.0
0.288889 0	 0.0
0.311111 0	 0.0
0.311111 0.0222222	 0.0
0.288889 0.0222222	 0.0
0.311111 0	 0.0
0.333333 0	 0.0
0.333333 0.0222222	 0.0
0.311111 0.0222222	 0.0
0.333333 0	 0.0
0.355556 0	 0.0
0.355556 0.0222222	 0.0
0.333333 0.0222222	 0.0
0.355556 0	 0.0
0.377778 0	 0.0
0.377778 0.0222222	 0.0
0.355556 0.0222222	 0.0
0.377778 0	 0.0
0.4 0	 0.0
0.4 0.0222222	 0.0
0.377778 0.0222222	 0.0
0.4 0	 0.0
0.422222 0	 0.0
0.422222 0.0222222	 0.0
0.4 0.0222222	 0.0
0.422222 0	 0.0
0.444444 0	 0.0
0.444444 0.0222222	 0.0
0.422222 0.0222222	 0.0
0.444444 0	 0.0
0.466667 0	 0.0
0.466667 0.0222222	 0.0
0.444444 0.0222222	 0.0
0.466667 0	 0.0
0.488889 0	 0.0
0.488889 0.0222222	 0.0
0.466667 0.0222222	 0.0
0.488889 0	 0.0
0.511111 0	 0.0
0.511111 0.0222222	 0.0
0.488889 0.0222222	 0.0
0.511111 0	 0.0
0.533333 0	 0.0
0.533333 0.0222222	 0.0
0.511111 0.0222222	 0.0
0.533333 0	 0.0
0.555556 0	 0.0
0.555556 0.0222222	 0.0
0.533333 0.0222222	 0.0
0.555556 0	 0.0
0.577778 0	 0.0
0.577778 0.0222222	 0.0
0.555556 0.0222222	 0.0
0.577778 0	 0.0
0.6 0	 0.0
0.6 0.0222222	 0.0
0.577778 0.0222222	 0.0
0.6 0	 0.0
0.622222 0	 0.0
0.622222 0.0222222	 0.0
0.6 0.0222222	 0.0
0.622222 0	 0.0
0.644444 0	 0.0
0.644444 0.0222222	 0.0
0.622222 0.0222222	 0.0
0.644444 0	 0.0
0.666667 0	 0.0
0.666667 0.0222222	 0.0
0.644444 0.0222222	 0.0
0.666667 0	 0.0
0.688889 0	 0.0
0.688889 0.0222222	 0.0
0.666667 0.0222222	 0.0
0.688889 0	 0.0
0.711111 0	 0.0
0.711111 0.0222222	 0.0
0.688889 0.0222222	 0.0
0.711111 0	 0.0
0.733333 0	 0.0
0.733333 0.0222222	 0.0
0.711111 0.0222222	 0.0
0.733333 0	 0.0
0.755556 0	 0.0
0.755556 0.0222222	 0.0
0.733333 0.0222222	 0.0
0.755556 0	 0.0
0.777778 0	 0.0
0.777778 0.0222222	 0.0
0.755556 0.0222222	 0.0
0.777778 0	 0.0
0.8 0	 0.0
0.8 0.0222222	 0.0
0.777778 0.0222222	 0.0
0.8 0	 0.0
0.822222 0	 0.0
0.822222 0.0222222	 0.0
0.8 0.0222222	 0.0
0.822222 0	 0.0
0.844444 0	 0.0
0.844444 0.0222222	 0.0
0.822222 0.0222222	 0.0
0.844444 0	 0.0
0.866667 0	 0.0
0.866667 0.0222222	 0.0
0.844444 0.0222222	 0.0
0.866667 0	 0.0
0.888889 0	 0.0
0.888889 0.0222222	 0.0
0.866667 0.0222222	 0.0
0.888889 0	 0.0
0.911111 0	 0.0
0.911111 0.0222222	 0.0
0.888889 0.0222222	 0.0
0.911111 0	 0.0
0.933333 0	 0.0
0.933333 0.0222222	 0.0
0.911111 0.0222222	 0.0
0.933333 0	 0.0
0.955556 0	 0.0
0.955556 0.0222222	 0.0
0.933333 0.0222222	 0.0
0.955556 0	 0.0
0.977778 0	 0.0
0.977778 0.0222222	 0.0
0.955556 0.0222222	 0.0
0.977778 0	 0.0
1 0	 0.0
1 0.0222222	 0.0
0.977778 0.0222222	 0.0
1 0	 0.0
1.02222 0	 0.0
1.02222 0.0222222	 0.0
1 0.0222222	 0.0
1.02222 0	 0.0
1.04444 0	 0.0
1.04444 0.0222222	 0.0
1.02222 0.0222222	 0.0
1.04444 0	 0.0
1.06667 0	 0.0
1.06667 0.0222222	 0.0
1.04444 0.0222222	 0.0
1.06667 0	 0.0
1.08889 0	 0.0
1.08889 0.0222222	 0.0
1.06667 0.0222222	 0.0
1.08889 0	 0.0
1.11111 0	 0.0
1.11111 0.0222222	 0.0
1.08889 0.0222222	 0.0
1.11111 0	 0.0
1.13333 0	 0.0
1.13333 0.0222222	 0.0
1.11111 0.0222222	 0.0
1.13333 0	 0.0
1.15556 0	 0.0
1.15556 0.0222222	 0.0
1.13333 0.0222222	 0.0
1.15556 0	 0.0
1.17778 0	 0.0
1.17778 0.0222222	 0.0
1.15556 0.0222222	 0.0
1.17778 0	 0.0
1.2 0	 0.0
1.2 0.0222222	 0.0
1.17778 0.0222222	 0.0
1.2 0	 0.0
1.22222 0	 0.0
1.22222 0.0222222	 0.0
1.2 0.0222222	 0.0
1.22222 0	 0.0
1.24444 0	 0.0
1.24444 0.0222222	 0.0
1.22222 0.0222222	 0.0
1.24444 0	 0.0
1.26667 0	 0.0
1.26667 0.0222222	 0.0
1.24444 0.0222222	 0.0
1.26667 0	 0.0
1.28889 0	 0.0
1.28889 0.0222222	 0.0
1.26667 0.0222222	 0.0
1.28889 0	 0.0
1.31111 0	 0.0
1.31111 0.0222222	 0.0
1.28889 0.0222222	 0.0
1.31111 0	 0.0
1.33333 0	 0.0
1.33333 0.0222222	 0.0
1.31111 0.0222222	 0.0
1.33333 0	 0.0
1.35556 0	 0.0
1.35556 0.0222222	 0.0
1.33333 0.0222222	 0.0
1.35556 0	 0.0
1.37778 0	 0.0
1.37778 0.0222222	 0.0
1.35556 0.0222222	 0.0
1.37778 0	 0.0
1.4 0	 0.0
1.4 0.0222222	 0.0
1.37778 0.0222222	 0.0
1.4 0	 0.0
1.42222 0	 0.0
1.42222 0.0222222	 0.0
1.4 0.0222222	 0.0
1.42222 0	 0.0
1.44444 0	 0.0
1.44444 0.0222222	 0.0
1.42222 0.0222222	 0.0
1.44444 0	 0.0
1.46667 0	 0.0
1.46667 0.0222222	 0.0
1.44444 0.0222222	 0.0
1.46667 0	 0.0
1.48889 0	 0.0
1.48889 0.0222222	 0.0
1.46667 0.0222222	 0.0
1.48889 0	 0.0
1.51111 0	 0.0
1.51111 0.0222222	 0.0
1.48889 0.0222222	 0.0
1.51111 0	 0.0
1.53333 0	 0.0
1.53333 0.0222222	 0.0
1.51111 0.0222222	 0.0
1.53333 0	 0.0
1.55556 0	 0.0
1.55556 0.0222222	 0.0
1.53333 0.0222222	 0.0
1.55556 0	 0.0
1.57778 0	 0.0
1.57778 0.0222222	 0.0
1.55556 0.0222222	 0.0
1.57778 0	 0.0
1.6 0	 0.0
1.6 0.0222222	 0.0
1.57778 0.0222222	 0.0
1.6 0	 0.0
1.62222 0	 0.0
1.62222 0.0222222	 0.0
1.6 0.0222222	 0.0
1.62222 0	 0.0
1.64444 0	 0.0
1.64444 0.0222222	 0.0
1.62222 0.0222222	 0.0
1.64444 0	 0.0
1.66667 0	 0.0
1.66667 0.0222222	 0.0
1.64444 0.0222222	 0.0
1.66667 0	 0.0
1.68889 0	 0.0
1.68889 0.0222222	 0.0
1.66667 0.0222222	 0.0
1.68889 0	 0.0
1.71111 0	 0.0
1.71111 0.0222222	 0.0
1.68889 0.0222222	 0.0
1.71111 0	 0.0
1.73333 0	 0.0
1.73333 0.0222222	 0.0
1.71111 0.0222222	 0.0
1.73333 0	 0.0
1.75556 0	 0.0
1.75556 0.0222222	 0.0
1.73333 0.0222222	 0.0
1.75556 0	 0.0
1.77778 0	 0.0
1.77778 0.0222222	 0.0
1.75556 0.0222222	 0.0
1.77778 0	 0.0
1.8 0	 0.0
1.8 0.0222222	 0.0
1.77778 0.0222222	 0.0
1.8 0	 0.0
1.82222 0	 0.0
1.82222 0.0222222	 0.0
1.8 0.0222222	 0.0
1.82222 0	 0.0
1.84444 0	 0.0
1.84444 0.0222222	 0.0
1.82222 0.0222222	 0.0
1.84444 0	 0.0
1.86667 0	 0.0
1.86667 0.0222222	 0.0
1.84444 0.0222222	 0.0
1.86667 0	 0.0
1.88889 0	 0.0
1.88889 0.0222222	 0.0
1.86667 0.0222222	 0.0
1.88889 0	 0.0
1.91111 0	 0.0
1.91111 0.0222222	 0.0
1.88889 0.0222222	 0.0
1.91111 0	 0.0
1.93333 0	 0.0
1.93333 0.0222222	 0.0
1.91111 0.0222222	 0.0
1.93333 0	 0.0
1.95556 0	 0.0
1.95556 0.0222222	 0.0
1.93333 0.0222222	 0.0
1.95556 0	 0.0
1.97778 0	 0.0
1.97778 0.0222222	 0.0
1.95556 0.0222222	 0.0
1.97778 0	 0.0
2 0	 0.0
2 0.0222222	 0.0
1.97778 0.0222222	 0.0
2 0	 0.0
2.02222 0	 0.0
2.02222 0.0222222	 0.0
2 0.0222222	 0.0
2.02222 0	 0.0
2.04444 0	 0.0
2.04444 0.0222222	 0.0
2.02222 0.0222222	 0.0
2.04444 0	 0.0
2.06667 0	 0.0
2.06667 0.0222222	 0.0
2.04444 0.0222222	 0.0
2.06667 0	 0.0
2.08889 0	 0.0
2.08889 0.0222222	 0.0
2.06667 0.0222222	 0.0
2.08889 0	 0.0
2.11111 0	 0.0
2.11111 0.0222222	 0.0
2.08889 0.0222222	 0.0
2.11111 0	 0.0
2.13333 0	 0.0
2.13333 0.0222222	 0.0
2.11111 0.0222222	 0.0
2.13333 0	 0.0
2.15556 0	 0.0
2.15556 0.0222222	 0.0
2.13333 0.0222222	 0.0
2.15556 0	 0.0
2.17778 0	 0.0
2.17778 0.0222222	 0.0
2.15556 0.0222222	 0.0
2.17778 0	 0.0
2.2 0	 0.0
2.2 0.0222222	 0.0
2.17778 0.0222222	 0.0
2.2 0	 0.0
2.22222 0	 0.0
2.22222 0.0222222	 0.0
2.2 0.0222222	 0.0
2.22222 0	 0.0
2.24444 0	 0.0
2.24444 0.0222222	 0.0
2.22222 0.0222222	 0.0
2.24444 0	 0.0
2.26667 0	 0.0
2.26667 0.0222222	 0.0
2.24444 0.0222222	 0.0
2.26667 0	 0.0
2.28889 0	 0.0
2.28889 0.0222222	 0.0
2.26667 0.0222222	 0.0
2.28889 0	 0.0
2.31111 0	 0.0
2.31111 0.0222222	 0.0
2.28889 0.0222222	 0.0
2.31111 0	 0.0
2.33333 0	 0.0
2.33333 0.0222222	 0.0
2.31111 0.0222222	 0.0
2.33333 0	 0.0
2.35556 0	 0.0
2.35556 0.0222222	 0.0
2.33333 0.0222222	 0.0
2.35556 0	 0.0
2.37778 0	 0.0
2.37778 0.0222222	 0.0
2.35556 0.0222222	 0.0
2.37778 0	 0.0
2.4 0	 0.0
2.4 0.0222222	 0.0
2.37778 0.0222222	 0.0
2.4 0	 0.0
2.42222 0	 0.0
2.42222 0.0222222	 0.0
2.4 0.0222222	 0.0
2.42222 0	 0.0
2.44444 0	 0.0
2.44444 0.0222222	 0.0
2.42222 0.0222222	 0.0
2.44444 0	 0.0
2.46667 0	 0.0
2.46667 0.0222222	 0.0
2.44444 0.0222222	 0.0
2.46667 0	 0.0
2.48889 0	 0.0
2.48889 0.0222222	 0.0
2.46667 0.0222222	 0.0
2.48889 0	 0.0
2.51111 0	 0.0
2.51111 0.0222222	 0.0
2.48889 0.0222222	 0.0
2.51111 0	 0.0
2.53333 0	 0.0
2.53333 0.0222222	 0.0
2.51111 0.0222222	 0.0
2.53333 0	 0.0
2.55556 0	 0.0
2.55556 0.0222222	 0.0
2.53333 0.0222222	 0.0
2.55556 0	 0.0
2.57778 0	 0.0
2.57778 0.0222222	 0.0
2.55556 0.0222222	 0.0
2.57778 0	 0.0
2.6 0	 0.0
2.6 0.0222222	 0.0
2.57778 0.0222222	 0.0
2.6 0	 0.0
2.62222 0	 0.0
2.62222 0.0222222	 0.0
2.6 0.0222222	 0.0
2.62222 0	 0.0
2.64444 0	 0.0
2.64444 0.0222222	 0.0
2.62222 0.0222222	 0.0
2.64444 0	 0.0
2.66667 0	 0.0
2.66667 0.0222222	 0.0
2.64444 0.0222222	 0.0
2.66667 0	 0.0
2.68889 0	 0.0
2.68889 0.0222222	 0.0
2.66667 0.0222222	 0.0
2.68889 0	 0.0
2.71111 0	 0.0
2.71111 0.0222222	 0.0
2.68889 0.0222222	 0.0
2.71111 0	 0.0
2.73333 0	 0.0
2.73333 0.0222222	 0.0
2.71111 0.0222222	 0.0
2.73333 0	 0.0
2.75556 0	 0.0
2.75556 0.0222222	 0.0
2.73333 0.0222222	 0.0
2.75556 0	 0.0
2.77778 0	 0.0
2.77778 0.0222222	 0.0
2.75556 0.0222222	 0.0
2.77778 0	 0.0
2.8 0	 0.0
2.8 0.0222222	 0.0
2.77778 0.0222222	 0.0
2.8 0	 0.0
2.82222 0	 0.0
2.82222 0.0222222	 0.0
2.8 0.0222222	 0.0
2.82222 0	 0.0
2.84444 0	 0.0
2.84444 0.0222222	 0.0
2.82222 0.0222222	 0.0
2.84444 0	 0.0
2.86667 0	 0.0
2.86667 0.0222222	 0.0
2.84444 0.0222222	 0.0
2.86667 0	 0.0
2.88889 0	 0.0
2.88889 0.0222222	 0.0
2.86667 0.0222222	 0.0
2.88889 0	 0.0
2.91111 0	 0.0
2.91111 0.0222222	 0.0
2.88889 0.0222222	 0.0
2.91111 0	 0.0
[...]
POINT_DATA 23448
SCALARS levelset_first float
LOOKUP_TABLE default
-0.879606
-0.846853
-0.82068
-0.853433
-0.846853
-0.815087
-0.788914
-0.82068
-0.815087
-0.784308
-0.758135
-0.788914
-0.784308
-0.754518
-0.728345
-0.758135
-0.754518
-0.725714
-0.699542
-0.728345
-0.725714
-0.697899
-0.671726
-0.699542
-0.697899
-0.671071
-0.644899
-0.671726
-0.671071
-0.645231
-0.619058
-0.644899
-0.645231
-0.620379
-0.594206
-0.619058
-0.620379
-0.596514
-0.570341
-0.594206
-0.596514
-0.573637
-0.547464
-0.570341
-0.573637
-0.551748
-0.525575
-0.547464
-0.551748
-0.530846
-0.504673
-0.525575
-0.530846
-0.510932
-0.484759
-0.504673
-0.510932
-0.492005
-0.465832
-0.484759
-0.492005
-0.474066
-0.447893
-0.465832
-0.474066
-0.457115
-0.430942
-0.447893
-0.457115
-0.441152
-0.414979
-0.430942
-0.441152
-0.426176
-0.400003
-0.414979
-0.426176
-0.412187
-0.386015
-0.400003
-0.412187
-0.399187
-0.373014
-0.386015
-0.399187
-0.387174
-0.361001
-0.373014
-0.387174
-0.376149
-0.349976
-0.361001
-0.376149
-0.366111
-0.339938
-0.349976
-0.366111
-0.357061
-0.330888
-0.339938
-0.357061
-0.348999
-0.322826
-0.330888
-0.348999
-0.341924
-0.315751
-0.322826
-0.341924
-0.335837
-0.309664
-0.315751
-0.335837
-0.330738
-0.304565
-0.309664
-0.330738
-0.326626
-0.300453
-0.304565
-0.326626
-0.323502
-0.297329
-0.300453
-0.323502
-0.321366
-0.295193
-0.297329
-0.321366
-0.320217
-0.294044
-0.295193
-0.320217
-0.320056
-0.293883
-0.294044
-0.320056
-0.320883
-0.29471
-0.293883
-0.320883
-0.322697
-0.296524
-0.29471
-0.322697
-0.325499
-0.299326
-0.296524
-0.325499
-0.329288
-0.303116
-0.299326
-0.329288
-0.334066
-0.307893
-0.303116
-0.334066
-0.33983
-0.313658
-0.307893
-0.33983
-0.346583
-0.32041
-0.313658
-0.346583
-0.354323
-0.32815
-0.32041
-0.354323
-0.363051
-0.336878
-0.32815
-0.363051
-0.372766
-0.346594
-0.336878
-0.372766
-0.38347
-0.357297
-0.346594
-0.38347
-0.39516
-0.368988
-0.357297
-0.39516
-0.407839
-0.381666
-0.368988
-0.407839
-0.421505
-0.395332
-0.381666
-0.421505
-0.436159
-0.409986
-0.395332
-0.436159
-0.4518
-0.425627
-0.409986
-0.4518
-0.468429
-0.442256
-0.425627
-0.468429
-0.486046
-0.459873
-0.442256
-0.486046
-0.50465
-0.478477
-0.459873
-0.50465
-0.524242
-0.498069
-0.478477
-0.524242
-0.544822
-0.518649
-0.498069
-0.544822
-0.566389
-0.540216
-0.518649
-0.566389
-0.588944
-0.562771
-0.540216
-0.588944
-0.612487
-0.586314
-0.562771
-0.612487
-0.637017
-0.610844
-0.586314
-0.637017
-0.662535
-0.636362
-0.610844
-0.662535
-0.689041
-0.662868
-0.636362
-0.689041
-0.716534
-0.690361
-0.662868
-0.716534
-0.745015
-0.718842
-0.690361
-0.745015
-0.774483
-0.748311
-0.718842
-0.774483
-0.80494
-0.778767
-0.748311
-0.80494
-0.836384
-0.810211
-0.778767
-0.836384
-0.868815
-0.842642
-0.810211
-0.868815
-0.902234
-0.876061
-0.842642
-0.902234
-0.936641
-0.910468
-0.876061
-0.936641
-0.972036
-0.945863
-0.910468
-0.972036
-1.00842
-0.982245
-0.945863
-1.00842
-1.04579
-1.01961
-0.982245
-1.04579
-1.08415
-1.05797
-1.01961
-1.08415
-1.12349
-1.09732
-1.05797
-1.12349
-1.16382
-1.13765
-1.09732
-1.16382
-1.20514
-1.17897
-1.13765
-1.20514
-1.24745
-1.22128
-1.17897
-1.24745
-1.29075
-1.26457
-1.22128
-1.29075
-1.33503
-1.30886
-1.26457
-1.33503
-1.3803
-1.35413
-1.30886
-1.3803
-1.42656
-1.40039
-1.35413
-1.42656
-1.47381
-1.44763
-1.40039
-1.47381
-1.52204
-1.49587
-1.44763
-1.52204
-1.57126
-1.54509
-1.49587
-1.57126
-1.62147
-1.5953
-1.54509
-1.62147
-1.67267
-1.6465
-1.5953
-1.67267
-1.72485
-1.69868
-1.6465
-1.72485
-1.77803
-1.75185
-1.69868
-1.77803
-1.83219
-1.80601
-1.75185
-1.83219
-1.88733
-1.86116
-1.80601
-1.88733
-1.94347
-1.9173
-1.86116
-1.94347
-2.00059
-1.97442
-1.9173
-2.00059
-2.0587
-2.03253
-1.97442
-2.0587
-2.1178
-2.09163
-2.03253
-2.1178
-2.17789
-2.15171
-2.09163
-2.17789
-2.23896
-2.21279
-2.15171
-2.23896
-2.30102
-2.27485
-2.21279
-2.30102
-2.36407
-2.3379
-2.27485
-2.36407
-2.42811
-2.40193
-2.3379
-2.42811
-2.49313
-2.46696
-2.40193
-2.49313
-2.55914
-2.53297
-2.46696
-2.55914
-2.62614
-2.59997
-2.53297
-2.62614
-2.69413
-2.66796
-2.59997
-2.69413
-2.7631
-2.73693
-2.66796
-2.7631
-2.83307
-2.80689
-2.73693
-2.83307
-2.90402
-2.87784
-2.80689
-2.90402
-2.97595
-2.94978
-2.87784
-2.97595
-3.04888
-3.02271
-2.94978
-3.04888
-3.12279
-3.09662
-3.02271
-3.12279
-3.19769
-3.17152
-3.09662
-3.19769
-3.27358
-3.24741
-3.17152
-3.27358
-3.35046
-3.32428
-3.24741
-3.35046
-3.42832
-3.40215
-3.32428
-3.42832
-3.50717
-3.481
-3.40215
-3.50717
-3.58701
-3.56084
-3.481
-3.58701
-3.66784
-3.64166
-3.56084
-3.66784
-3.74965
-3.72348
-3.64166
-3.74965
-3.83245
-3.80628
-3.72348
-3.83245
-3.91624
-3.89007
-3.80628
-3.91624
-4.00102
-3.97485
-3.89007
-4.00102
-4.08678
-4.06061
-3.97485
-4.08678
-4.17354
-4.14736
-4.06061
-4.17354
-4.26128
-4.2351
-4.14736
-4.26128
-4.35001
-4.32383
-4.2351
-4.35001
-4.43972
-4.41355
-4.32383
-4.43972
-4.53042
-4.50425
-4.41355
-4.53042
-4.62211
-4.59594
-4.50425
-4.62211
-4.71479
-4.68862
-4.59594
-4.71479
-4.80846
-4.78229
-4.68862
-4.80846
-4.90311
-4.87694
-4.78229
-4.90311
-4.99875
-4.97258
-4.87694
-4.99875
-5.09538
-5.06921
-4.97258
-5.09538
-5.193
-5.16683
-5.06921
-5.193
-5.2916
-5.26543
-5.16683
-5.2916
-5.3912
-5.36502
-5.26543
-0.853433
-0.82068
-0.795495
-0.828248
-0.82068
-0.788914
-0.763729
-0.795495
-0.788914
-0.758135
-0.73295
-0.763729
-0.758135
-0.728345
-0.703159
-0.73295
-0.728345
-0.699542
-0.674356
-0.703159
-0.699542
-0.671726
-0.646541
-0.674356
-0.671726
-0.644899
-0.619713
-0.646541
-0.644899
-0.619058
-0.593873
-0.619713
-0.619058
-0.594206
-0.569021
-0.593873
-0.594206
-0.570341
-0.545156
-0.569021
-0.570341
-0.547464
-0.522279
-0.545156
-0.547464
-0.525575
-0.50039
-0.522279
-0.525575
-0.504673
-0.479488
-0.50039
-0.504673
-0.484759
-0.459574
-0.479488
-0.484759
-0.465832
-0.440647
-0.459574
-0.465832
-0.447893
-0.422708
-0.440647
-0.447893
-0.430942
-0.405757
-0.422708
-0.430942
-0.414979
-0.389794
-0.405757
-0.414979
-0.400003
-0.374818
-0.389794
-0.400003
-0.386015
-0.360829
-0.374818
-0.386015
-0.373014
-0.347829
-0.360829
-0.373014
-0.361001
-0.335816
-0.347829
-0.361001
-0.349976
-0.324791
-0.335816
-0.349976
-0.339938
-0.314753
-0.324791
-0.339938
-0.330888
-0.305703
-0.314753
-0.330888
-0.322826
-0.297641
-0.305703
-0.322826
-0.315751
-0.290566
-0.297641
-0.315751
-0.309664
-0.284479
-0.290566
-0.309664
-0.304565
-0.27938
-0.284479
-0.304565
-0.300453
-0.275268
-0.27938
-0.300453
-0.297329
-0.272144
-0.275268
-0.297329
-0.295193
-0.270008
-0.272144
-0.295193
-0.294044
-0.268859
-0.270008
-0.294044
-0.293883
-0.268698
-0.268859
-0.293883
-0.29471
-0.269525
-0.268698
-0.29471
-0.296524
-0.271339
-0.269525
-0.296524
-0.299326
-0.274141
-0.271339
-0.299326
-0.303116
-0.27793
-0.274141
-0.303116
-0.307893
-0.282708
-0.27793
-0.307893
-0.313658
-0.288472
-0.282708
-0.313658
-0.32041
-0.295225
-0.288472
-0.32041
-0.32815
-0.302965
-0.295225
-0.32815
-0.336878
-0.311693
-0.302965
-0.336878
-0.346594
-0.321408
-0.311693
-0.346594
-0.357297
-0.332112
-0.321408
-0.357297
-0.368988
-0.343802
-0.332112
-0.368988
-0.381666
-0.356481
-0.343802
-0.381666
-0.395332
-0.370147
-0.356481
-0.395332
-0.409986
-0.384801
-0.370147
-0.409986
-0.425627
-0.400442
-0.384801
-0.425627
-0.442256
-0.417071
-0.400442
-0.442256
-0.459873
-0.434688
-0.417071
-0.459873
-0.478477
-0.453292
-0.434688
-0.478477
-0.498069
-0.472884
-0.453292
-0.498069
-0.518649
-0.493464
-0.472884
-0.518649
-0.540216
-0.515031
-0.493464
-0.540216
-0.562771
-0.537586
-0.515031
-0.562771
-0.586314
-0.561129
-0.537586
-0.586314
-0.610844
-0.585659
-0.561129
-0.610844
-0.636362
-0.611177
-0.585659
-0.636362
-0.662868
-0.637683
-0.611177
-0.662868
-0.690361
-0.665176
-0.637683
-0.690361
-0.718842
-0.693657
-0.665176
-0.718842
-0.748311
-0.723125
-0.693657
-0.748311
-0.778767
-0.753582
-0.723125
-0.778767
-0.810211
-0.785026
-0.753582
-0.810211
-0.842642
-0.817457
-0.785026
-0.842642
-0.876061
-0.850876
-0.817457
-0.876061
-0.910468
-0.885283
-0.850876
-0.910468
-0.945863
-0.920678
-0.885283
-0.945863
-0.982245
-0.95706
-0.920678
-0.982245
-1.01961
-0.99443
-0.95706
-1.01961
-1.05797
-1.03279
-0.99443
-1.05797
-1.09732
-1.07213
-1.03279
-1.09732
-1.13765
-1.11246
-1.07213
-1.13765
-1.17897
-1.15379
-1.11246
-1.17897
-1.22128
-1.19609
-1.15379
-1.22128
-1.26457
-1.23939
-1.19609
-1.26457
-1.30886
-1.28367
-1.23939
-1.30886
-1.35413
-1.32894
-1.28367
-1.35413
-1.40039
-1.3752
-1.32894
-1.40039
-1.44763
-1.42245
-1.3752
-1.44763
-1.49587
-1.47068
-1.42245
-1.49587
-1.54509
-1.5199
-1.47068
-1.54509
-1.5953
-1.57011
-1.5199
-1.5953
-1.6465
-1.62131
-1.57011
-1.6465
-1.69868
-1.6735
-1.62131
-1.69868
-1.75185
-1.72667
-1.6735
-1.75185
-1.80601
-1.78083
-1.72667
-1.80601
-1.86116
-1.83597
-1.78083
-1.86116
-1.9173
-1.89211
-1.83597
-1.9173
-1.97442
-1.94923
-1.89211
-1.97442
-2.03253
-2.00734
-1.94923
-2.03253
-2.09163
-2.06644
-2.00734
-2.09163
-2.15171
-2.12653
-2.06644
-2.15171
-2.21279
-2.1876
-2.12653
-2.21279
-2.27485
-2.24966
-2.1876
-2.27485
-2.3379
-2.31271
-2.24966
-2.3379
-2.40193
-2.37675
-2.31271
-2.40193
-2.46696
-2.44177
-2.37675
-2.46696
-2.53297
-2.50778
-2.44177
-2.53297
-2.59997
-2.57478
-2.50778
-2.59997
-2.66796
-2.64277
-2.57478
-2.66796
-2.73693
-2.71174
-2.64277
-2.73693
-2.80689
-2.78171
-2.71174
-2.80689
-2.87784
-2.85266
-2.78171
-2.87784
-2.94978
-2.92459
-2.85266
-2.94978
-3.02271
-2.99752
-2.92459
-3.02271
-3.09662
-3.07143
-2.99752
-3.09662
-3.17152
-3.14633
-3.07143
-3.17152
-3.24741
-3.22222
-3.14633
-3.24741
-3.32428
-3.2991
-3.22222
-3.32428
-3.40215
-3.37696
-3.2991
-3.40215
-3.481
-3.45581
-3.37696
-3.481
-3.56084
-3.53565
-3.45581
-3.56084
-3.64166
-3.61648
-3.53565
-3.64166
-3.72348
-3.69829
-3.61648
-3.72348
-3.80628
-3.78109
-3.69829
-3.80628
-3.89007
-3.86488
-3.78109
-3.89007
-3.97485
-3.94966
-3.86488
-3.97485
-4.06061
-4.03543
-3.94966
-4.06061
-4.14736
-4.12218
-4.03543
-4.14736
-4.2351
-4.20992
-4.12218
-4.2351
-4.32383
-4.29865
-4.20992
-4.32383
-4.41355
-4.38836
-4.29865
-4.41355
-4.50425
-4.47907
-4.38836
-4.50425
-4.59594
-4.57076
-4.47907
-4.59594
-4.68862
-4.66343
-4.57076
-4.68862
-4.78229
-4.7571
-4.66343
-4.78229
-4.87694
-4.85175
-4.7571
-4.87694
-4.97258
-4.9474
-4.85175
-4.97258
-5.06921
-5.04403
-4.9474
-5.06921
-5.16683
-5.14164
-5.04403
-5.16683
-5.26543
-5.24025
-5.14164
-5.26543
-5.36502
-5.33984
-5.24025
-0.828248
-0.795495
-0.771297
-0.804051
-0.795495
-0.763729
-0.739531
-0.771297
-0.763729
-0.73295
-0.708753
-0.739531
-0.73295
-0.703159
-0.678962
-0.708753
-0.703159
-0.674356
-0.650159
-0.678962
-0.674356
-0.646541
-0.622344
-0.650159
-0.646541
-0.619713
-0.595516
-0.622344
-0.619713
-0.593873
-0.569676
-0.595516
-0.593873
-0.569021
-0.544823
-0.569676
-0.569021
-0.545156
-0.520959
-0.544823
-0.545156
-0.522279
-0.498081
-0.520959
-0.522279
-0.50039
-0.476192
-0.498081
-0.50039
-0.479488
-0.45529
-0.476192
-0.479488
-0.459574
-0.435376
-0.45529
-0.459574
-0.440647
-0.41645
-0.435376
-0.440647
-0.422708
-0.398511
-0.41645
-0.422708
-0.405757
-0.38156
-0.398511
-0.405757
-0.389794
-0.365596
-0.38156
-0.389794
-0.374818
-0.35062
-0.365596
-0.374818
-0.360829
-0.336632
-0.35062
-0.360829
-0.347829
-0.323631
-0.336632
-0.347829
-0.335816
-0.311618
-0.323631
-0.335816
-0.324791
-0.300593
-0.311618
-0.324791
-0.314753
-0.290556
-0.300593
-0.314753
-0.305703
-0.281506
-0.290556
-0.305703
-0.297641
-0.273443
-0.281506
-0.297641
-0.290566
-0.266369
-0.273443
-0.290566
-0.284479
-0.260282
-0.266369
-0.284479
-0.27938
-0.255182
-0.260282
-0.27938
-0.275268
-0.251071
-0.255182
-0.275268
-0.272144
-0.247947
-0.251071
-0.272144
-0.270008
-0.24581
-0.247947
-0.270008
-0.268859
-0.244662
-0.24581
-0.268859
-0.268698
-0.244501
-0.244662
-0.268698
-0.269525
-0.245327
-0.244501
-0.269525
-0.271339
-0.247141
-0.245327
-0.271339
-0.274141
-0.249943
-0.247141
-0.274141
-0.27793
-0.253733
-0.249943
-0.27793
-0.282708
-0.25851
-0.253733
-0.282708
-0.288472
-0.264275
-0.25851
-0.288472
-0.295225
-0.271027
-0.264275
-0.295225
-0.302965
-0.278768
-0.271027
-0.302965
-0.311693
-0.287495
-0.278768
-0.311693
-0.321408
-0.297211
-0.287495
-0.321408
-0.332112
-0.307914
-0.297211
-0.332112
-0.343802
-0.319605
-0.307914
-0.343802
-0.356481
-0.332283
-0.319605
-0.356481
-0.370147
-0.345949
-0.332283
-0.370147
-0.384801
-0.360603
-0.345949
-0.384801
-0.400442
-0.376245
-0.360603
-0.400442
-0.417071
-0.392874
-0.376245
-0.417071
-0.434688
-0.41049
-0.392874
-0.434688
-0.453292
-0.429095
-0.41049
-0.453292
-0.472884
-0.448687
-0.429095
-0.472884
-0.493464
-0.469266
-0.448687
-0.493464
-0.515031
-0.490834
-0.469266
-0.515031
-0.537586
-0.513389
-0.490834
-0.537586
-0.561129
-0.536931
-0.513389
-0.561129
-0.585659
-0.561462
-0.536931
-0.585659
-0.611177
-0.58698
-0.561462
-0.611177
-0.637683
-0.613485
-0.58698
-0.637683
-0.665176
-0.640978
-0.613485
-0.665176
-0.693657
-0.669459
-0.640978
-0.693657
-0.723125
-0.698928
-0.669459
-0.723125
-0.753582
-0.729384
-0.698928
-0.753582
-0.785026
-0.760828
-0.729384
-0.785026
-0.817457
-0.79326
-0.760828
-0.817457
-0.850876
-0.826679
-0.79326
-0.850876
-0.885283
-0.861086
-0.826679
-0.885283
-0.920678
-0.89648
-0.861086
-0.920678
-0.95706
-0.932862
-0.89648
-0.95706
-0.99443
-0.970232
-0.932862
-0.99443
-1.03279
-1.00859
-0.970232
-1.03279
-1.07213
-1.04793
-1.00859
-1.07213
-1.11246
-1.08827
-1.04793
-1.11246
-1.15379
-1.12959
-1.08827
-1.15379
-1.19609
-1.1719
-1.12959
-1.19609
-1.23939
-1.21519
-1.1719
-1.23939
-1.28367
-1.25947
-1.21519
-1.28367
-1.32894
-1.30475
-1.25947
-1.32894
-1.3752
-1.351
-1.30475
-1.3752
-1.42245
-1.39825
-1.351
-1.42245
-1.47068
-1.44649
-1.39825
-1.47068
-1.5199
-1.49571
-1.44649
-1.5199
-1.57011
-1.54592
-1.49571
-1.57011
-1.62131
-1.59711
-1.54592
-1.62131
-1.6735
-1.6493
-1.59711
-1.6735
-1.72667
-1.70247
-1.6493
-1.72667
-1.78083
-1.75663
-1.70247
-1.78083
-1.83597
-1.81178
-1.75663
-1.83597
-1.89211
-1.86791
-1.81178
-1.89211
-1.94923
-1.92504
-1.86791
-1.94923
-2.00734
-1.98315
-1.92504
-2.00734
-2.06644
-2.04224
-1.98315
-2.06644
-2.12653
-2.10233
-2.04224
-2.12653
-2.1876
-2.1634
-2.10233
-2.1876
-2.24966
-2.22546
-2.1634
-2.24966
-2.31271
-2.28851
-2.22546
-2.31271
-2.37675
-2.35255
-2.28851
-2.37675
-2.44177
-2.41757
-2.35255
-2.44177
-2.50778
-2.48359
-2.41757
-2.50778
-2.57478
-2.55059
-2.48359
-2.57478
-2.64277
-2.61857
-2.55059
-2.64277
-2.71174
-2.68755
-2.61857
-2.71174
-2.78171
-2.75751
-2.68755
-2.78171
-2.85266
-2.82846
-2.75751
-2.85266
-2.92459
-2.9004
-2.82846
-2.92459
-2.99752
-2.97332
-2.9004
-2.99752
-3.07143
-3.04724
-2.97332
-3.07143
-3.14633
-3.12214
-3.04724
-3.14633
-3.22222
-3.19802
-3.12214
-3.22222
-3.2991
-3.2749
-3.19802
-3.2991
-3.37696
-3.35276
-3.2749
-3.37696
-3.45581
-3.43162
-3.35276
-3.45581
-3.53565
-3.51145
-3.43162
-3.53565
-3.61648
-3.59228
-3.51145
-3.61648
-3.69829
-3.6741
-3.59228
-3.69829
-3.78109
-3.7569
-3.6741
-3.78109
-3.86488
-3.84069
-3.7569
-3.86488
-3.94966
-3.92546
-3.84069
-3.94966
-4.03543
-4.01123
-3.92546
-4.03543
-4.12218
-4.09798
-4.01123
-4.12218
-4.20992
-4.18572
-4.09798
-4.20992
-4.29865
-4.27445
-4.18572
-4.29865
-4.38836
-4.36416
-4.27445
-4.38836
-4.47907
-4.45487
-4.36416
-4.47907
-4.57076
-4.54656
-4.45487
-4.57076
-4.66343
-4.63924
-4.54656
-4.66343
-4.7571
-4.7329
-4.63924
-4.7571
-4.85175
-4.82756
-4.7329
-4.85175
-4.9474
-4.9232
-4.82756
-4.9474
-5.04403
-5.01983
-4.9232
-5.04403
-5.14164
-5.11744
-5.01983
-5.14164
-5.24025
-5.21605
-5.11744
-5.24025
-5.33984
-5.31564
-5.21605
-0.804051
-0.771297
-0.748087
-0.780841
-0.771297
-0.739531
-0.716321
-0.748087
-0.739531
-0.708753
-0.685543
-0.716321
-0.708753
-0.678962
-0.655752
-0.685543
-0.678962
-0.650159
-0.626949
-0.655752
-0.650159
-0.622344
-0.599134
-0.626949
-0.622344
-0.595516
-0.572306
-0.599134
-0.595516
-0.569676
-0.546466
-0.572306
-0.569676
-0.544823
-0.521613
-0.546466
-0.544823
-0.520959
-0.497749
-0.521613
-0.520959
-0.498081
-0.474872
-0.497749
-0.498081
-0.476192
-0.452982
-0.474872
-0.476192
-0.45529
-0.43208
-0.452982
-0.45529
-0.435376
-0.412166
-0.43208
-0.435376
-0.41645
-0.39324
-0.412166
-0.41645
-0.398511
-0.375301
-0.39324
-0.398511
-0.38156
-0.35835
-0.375301
-0.38156
-0.365596
-0.342386
-0.35835
-0.365596
-0.35062
-0.32741
-0.342386
-0.35062
-0.336632
-0.313422
-0.32741
-0.336632
-0.323631
-0.300421
-0.313422
-0.323631
-0.311618
-0.288409
-0.300421
-0.311618
-0.300593
-0.277383
-0.288409
-0.300593
-0.290556
-0.267346
-0.277383
-0.290556
-0.281506
-0.258296
-0.267346
-0.281506
-0.273443
-0.250233
-0.258296
-0.273443
-0.266369
-0.243159
-0.250233
-0.266369
-0.260282
-0.237072
-0.243159
-0.260282
-0.255182
-0.231972
-0.237072
-0.255182
-0.251071
-0.227861
-0.231972
-0.251071
-0.247947
-0.224737
-0.227861
-0.247947
-0.24581
-0.2226
-0.224737
-0.24581
-0.244662
-0.221452
-0.2226
-0.244662
-0.244501
-0.221291
-0.221452
-0.244501
-0.245327
-0.222117
-0.221291
-0.245327
-0.247141
-0.223931
-0.222117
-0.247141
-0.249943
-0.226733
-0.223931
-0.249943
-0.253733
-0.230523
-0.226733
-0.253733
-0.25851
-0.2353
-0.230523
-0.25851
-0.264275
-0.241065
-0.2353
-0.264275
-0.271027
-0.247818
-0.241065
-0.271027
-0.278768
-0.255558
-0.247818
-0.278768
-0.287495
-0.264286
-0.255558
-0.287495
-0.297211
-0.274001
-0.264286
-0.297211
-0.307914
-0.284704
-0.274001
-0.307914
-0.319605
-0.296395
-0.284704
-0.319605
-0.332283
-0.309073
-0.296395
-0.332283
-0.345949
-0.322739
-0.309073
-0.345949
-0.360603
-0.337393
-0.322739
-0.360603
-0.376245
-0.353035
-0.337393
-0.376245
-0.392874
-0.369664
-0.353035
-0.392874
-0.41049
-0.38728
-0.369664
-0.41049
-0.429095
-0.405885
-0.38728
-0.429095
-0.448687
-0.425477
-0.405885
-0.448687
-0.469266
-0.446056
-0.425477
-0.469266
-0.490834
-0.467624
-0.446056
-0.490834
-0.513389
-0.490179
-0.467624
-0.513389
-0.536931
-0.513721
-0.490179
-0.536931
-0.561462
-0.538252
-0.513721
-0.561462
-0.58698
-0.56377
-0.538252
-0.58698
-0.613485
-0.590275
-0.56377
-0.613485
-0.640978
-0.617769
-0.590275
-0.640978
-0.669459
-0.646249
-0.617769
-0.669459
-0.698928
-0.675718
-0.646249
-0.698928
-0.729384
-0.706174
-0.675718
-0.729384
-0.760828
-0.737618
-0.706174
-0.760828
-0.79326
-0.77005
-0.737618
-0.79326
-0.826679
-0.803469
-0.77005
-0.826679
-0.861086
-0.837876
-0.803469
-0.861086
-0.89648
-0.87327
-0.837876
-0.89648
-0.932862
-0.909652
-0.87327
-0.932862
-0.970232
-0.947022
-0.909652
-0.970232
-1.00859
-0.98538
-0.947022
-1.00859
-1.04793
-1.02472
-0.98538
-1.04793
-1.08827
-1.06506
-1.02472
-1.08827
-1.12959
-1.10638
-1.06506
-1.12959
-1.1719
-1.14869
-1.10638
-1.1719
-1.21519
-1.19198
-1.14869
-1.21519
-1.25947
-1.23627
-1.19198
-1.25947
-1.30475
-1.28154
-1.23627
-1.30475
-1.351
-1.32779
-1.28154
-1.351
-1.39825
-1.37504
-1.32779
-1.39825
-1.44649
-1.42328
-1.37504
-1.44649
-1.49571
-1.4725
-1.42328
-1.49571
-1.54592
-1.52271
-1.4725
-1.54592
-1.59711
-1.5739
-1.52271
-1.59711
-1.6493
-1.62609
-1.5739
-1.6493
-1.70247
-1.67926
-1.62609
-1.70247
-1.75663
-1.73342
-1.67926
-1.75663
-1.81178
-1.78857
-1.73342
-1.81178
-1.86791
-1.8447
-1.78857
-1.86791
-1.92504
-1.90183
-1.8447
-1.92504
-1.98315
-1.95994
-1.90183
-1.98315
-2.04224
-2.01903
-1.95994
-2.04224
-2.10233
-2.07912
-2.01903
-2.10233
-2.1634
-2.14019
-2.07912
-2.1634
-2.22546
-2.20225
-2.14019
-2.22546
-2.28851
-2.2653
-2.20225
-2.28851
-2.35255
-2.32934
-2.2653
-2.35255
-2.41757
-2.39436
-2.32934
-2.41757
-2.48359
-2.46038
-2.39436
-2.48359
-2.55059
-2.52738
-2.46038
-2.55059
-2.61857
-2.59536
-2.52738
-2.61857
-2.68755
-2.66434
-2.59536
-2.68755
-2.75751
-2.7343
-2.66434
-2.75751
-2.82846
-2.80525
-2.7343
-2.82846
-2.9004
-2.87719
-2.80525
-2.9004
-2.97332
-2.95011
-2.87719
-2.97332
-3.04724
-3.02403
-2.95011
-3.04724
-3.12214
-3.09893
-3.02403
-3.12214
-3.19802
-3.17481
-3.09893
-3.19802
-3.2749
-3.25169
-3.17481
-3.2749
-3.35276
-3.32955
-3.25169
-3.35276
-3.43162
-3.40841
-3.32955
-3.43162
-3.51145
-3.48824
-3.40841
-3.51145
-3.59228
-3.56907
-3.48824
-3.59228
-3.6741
-3.65089
-3.56907
-3.6741
-3.7569
-3.73369
-3.65089
-3.7569
-3.84069
-3.81748
-3.73369
-3.84069
-3.92546
-3.90225
-3.81748
-3.92546
-4.01123
-3.98802
-3.90225
-4.01123
-4.09798
-4.07477
-3.98802
-4.09798
-4.18572
-4.16251
-4.07477
-4.18572